ITEM: TIMESTEP
0
ITEM: NUMBER OF ATOMS
4
ITEM: BOX BOUNDS pp pp pp
-10.0 10.0
-10.0 10.0
-10.0 10.0
ITEM: ATOMS id type element xu yu zu
1 1 C 0 0 0
2 1 C 0 0 1.54
3 1 C 1.45 0 -0.51
4 1 C -0.73 1.26 -0.51

