ITEM: TIMESTEP
0
ITEM: NUMBER OF ATOMS
288
ITEM: BOX BOUNDS pp pp pp
0.0 12.53099046
0.0  9.58909703
0.0 19.70712274
ITEM: ATOMS id type element x y z
1   1 C 11.828984 5.253194 1.77705
2   1 C 4.096408 8.552902 4.85845
3   1 C 4.76811 7.357503 4.78726
4   1 C 0.030396 7.454216 8.36538
5   1 C 8.285686 8.35054 11.476799
6   1 C 8.972087 7.14233 11.5831
7   1 C 8.798591 8.285717 14.8416
8   1 C 10.602225 6.477994 18.1896
9   1 C 11.317585 5.280694 18.159
10  1 C 11.795526 2.892093 1.82444
11  1 C 11.153424 4.054694 1.92096
12  1 C 4.102809 6.113803 4.7977
13  1 C 4.778808 4.909604 4.69694
14  1 C 0.033596 5.006614 8.40325
15  1 C 11.893801 6.231117 8.36054
16  1 C 8.310787 5.962999 11.5657
17  1 C 9.051485 4.79748 11.5995
18  1 C 8.819791 5.917438 14.8097
19  1 C 8.042991 7.103637 14.7352
20  1 C 10.607365 4.125194 18.175301
21  1 C 11.301214 2.892594 18.209299
22  1 C 11.795079 0.506193 1.68065
23  1 C 11.136095 1.688094 1.71001
24  1 C 4.102409 3.712003 4.76561
25  1 C 4.828309 2.517804 4.9042
26  1 C 1.96e-04 2.618516 8.38621
27  1 C 11.8793 3.849814 8.35082
28  1 C 8.316689 3.58583 11.5533
29  1 C 8.939985 2.33716 11.5065
30  1 C 8.822091 3.514237 14.9829
31  1 C 8.09779 4.703247 14.862199
32  1 C 10.633104 1.663494 18.2141
33  1 C 11.311194 0.500794 18.3097
34  1 C 11.84769 7.637592 1.69099
35  1 C 11.109605 8.847992 1.65147
36  1 C 4.148908 1.338803 4.94046
37  1 C 4.80661 0.180603 4.93416
38  1 C 0.020496 0.235915 8.38615
39  1 C 11.8489 1.473614 8.3386
40  1 C 8.261188 1.1615 11.4919
41  1 C 8.965688 9.514153 11.5108
42  1 C 8.81479 1.082797 14.865499
43  1 C 8.151593 2.326517 14.839599
44  1 C 10.643205 8.906092 18.3318
45  1 C 11.313045 7.677692 18.266399
46  1 C 11.149345 6.43959 1.64559
47  1 C 11.8884 8.615012 8.36042
48  1 C 8.17789 9.464015 14.7621
49  1 C 2.685409 8.543903 4.87166
50  1 C 6.900189 8.37451 11.389499
51  1 C 9.216744 6.486194 18.1752
52  1 C 9.733714 4.084594 1.74679
53  1 C 9.033845 5.271895 1.7208
54  1 C 2.035809 7.351803 4.96491
55  1 C 2.721408 6.149803 4.94178
56  1 C 10.4547 6.275113 8.29554
57  1 C 9.76017 7.472113 8.30353
58  1 C 6.229087 7.15666 11.4809
59  1 C 6.917284 5.944719 11.4682
60  1 C 6.71759 7.060697 14.772099
61  1 C 5.991292 8.330887 14.7519
62  1 C 8.525555 5.274794 18.171499
63  1 C 9.212224 4.089594 18.072599
64  1 C 9.753055 1.697794 1.73871
65  1 C 9.036525 2.930695 1.67474
66  1 C 2.025009 4.925204 4.95148
67  1 C 2.733708 3.748203 4.87592
68  1 C 10.4401 3.895113 8.3621
69  1 C 9.746081 5.078616 8.285739
70  1 C 6.166488 4.77188 11.4704
71  1 C 6.877289 3.60969 11.481
72  1 C 6.725194 4.691417 14.843299
73  1 C 5.98299 5.898597 14.8036
74  1 C 8.524674 2.897394 18.007299
75  1 C 9.222034 1.680994 18.1106
76  1 C 9.743905 8.862793 1.65514
77  1 C 9.060285 0.475594 1.65983
78  1 C 2.026109 2.502703 4.87015
79  1 C 2.711509 1.308504 4.86421
80  1 C 10.426901 1.517117 8.27004
81  1 C 9.74921 2.737413 8.277229
82  1 C 6.249188 2.34799 11.507599
83  1 C 6.889586 1.18146 11.3969
84  1 C 6.77309 2.274057 14.756099
85  1 C 6.053892 3.476107 14.793
86  1 C 8.573276 0.479895 18.1504
87  1 C 9.233665 8.904793 18.282497
88  1 C 9.735154 6.431591 1.68876
89  1 C 9.072945 7.673591 1.74673
90  1 C 1.97681 0.114543 4.91223
91  1 C 10.498801 8.658913 8.30221
92  1 C 9.76776 0.330116 8.30694
93  1 C 6.203986 9.563182 11.3026
94  1 C 6.721892 9.508275 14.7632
95  1 C 6.027391 1.135497 14.8227
96  1 C 8.521435 7.73629 18.2507
97  1 C 7.643344 5.274194 1.69859
98  1 C 12.449513 8.573003 5.02171
99  1 C 0.670509 7.344003 4.98711
100 1 C 8.41062 7.507614 8.21443
101 1 C 4.144588 8.36356 11.439299
102 1 C 4.838186 7.160729 11.4795
103 1 C 4.594392 8.343087 14.756499
104 1 C 6.417594 6.479094 18.176399
105 1 C 7.117125 5.280794 18.180599
106 1 C 7.658775 2.895695 1.67288
107 1 C 6.941624 4.063394 1.64651
108 1 C 12.477612 6.195203 5.02369
109 1 C 0.621309 4.940503 4.97447
110 1 C 8.37163 5.121313 8.20974
111 1 C 7.708591 6.319717 8.23186
112 1 C 4.110687 5.95787 11.5969
113 1 C 4.810288 4.7447 11.4616
114 1 C 4.59789 5.921317 14.7991
115 1 C 3.920691 7.126027 14.7351
116 1 C 6.437465 4.067693 18.078699
117 1 C 7.100174 2.838295 18.0347
118 1 C 7.662354 0.458393 1.53117
119 1 C 6.998345 1.676394 1.59974
120 1 C 12.459113 3.737003 4.99446
121 1 C 0.629308 2.531402 4.9335
122 1 C 8.33476 2.701017 8.32755
123 1 C 7.647971 3.897313 8.3454
124 1 C 4.120487 3.54683 11.4769
125 1 C 4.820888 2.34361 11.4354
126 1 C 4.662891 3.527077 14.8885
127 1 C 3.940791 4.693897 14.8573
128 1 C 6.399155 1.615594 18.0646
129 1 C 7.097684 0.463693 18.0676
130 1 C 7.652895 7.656291 1.69433
131 1 C 6.987375 8.843591 1.59853
132 1 C 12.448814 1.367803 4.97013
133 1 C 0.57441 0.171353 4.98144
134 1 C 8.37661 0.272412 8.28681
135 1 C 7.6794 1.482215 8.38475
136 1 C 4.085388 1.14877 11.4416
137 1 C 4.814685 9.56522 11.4024
138 1 C 4.64219 1.153006 14.867299
139 1 C 3.914692 2.320947 14.958099
140 1 C 6.423224 8.85039 18.189199
141 1 C 7.128685 7.66309 18.248501
142 1 C 6.940565 6.469193 1.64443
143 1 C 7.721631 8.698812 8.20971
144 1 C 3.951792 9.534864 14.8205
145 1 C 11.063813 8.507604 4.96426
146 1 C 2.736388 8.31992 11.545099
147 1 C 5.029265 6.441095 18.1035
148 1 C 5.581325 4.002594 1.55168
149 1 C 4.860155 5.258595 1.63779
150 1 C 10.399213 7.284003 5.0098
151 1 C 11.090612 6.105103 4.99586
152 1 C 6.23739 6.298817 8.17295
153 1 C 5.59794 7.508615 8.22202
154 1 C 2.046886 7.17125 11.5592
155 1 C 2.718585 5.93758 11.616699
156 1 C 2.559492 7.126347 14.7652
157 1 C 1.874591 8.298187 14.913399
158 1 C 4.373565 5.236393 18.1117
159 1 C 5.028094 4.034094 18.075899
160 1 C 5.615354 1.634194 1.57801
161 1 C 4.866234 2.823094 1.56396
162 1 C 10.362812 4.903003 4.99162
163 1 C 11.076212 3.738602 5.03731
164 1 C 6.25941 3.874213 8.30334
165 1 C 5.56862 5.106014 8.19722
166 1 C 2.057184 4.73631 11.6914
167 1 C 2.734987 3.52842 11.559299
168 1 C 2.514789 4.728127 14.9213
169 1 C 1.851291 5.925817 14.885499
170 1 C 4.312035 2.829094 18.0888
171 1 C 4.993295 1.605294 18.131001
172 1 C 5.577244 8.862093 1.62136
173 1 C 4.917355 0.468494 1.66664
174 1 C 10.366714 2.502603 5.02881
175 1 C 11.049114 1.332702 4.96156
176 1 C 6.27836 1.485713 8.35341
177 1 C 5.597681 2.673614 8.34597
178 1 C 2.063685 2.3277 11.594
179 1 C 2.748288 1.15802 11.595199
180 1 C 2.541692 2.332697 14.931199
181 1 C 1.839092 3.518407 14.9169
182 1 C 4.328635 0.434593 18.2896
183 1 C 5.006745 8.88469 18.2293
184 1 C 5.561354 6.440992 1.60651
185 1 C 4.857885 7.675093 1.68687
186 1 C 10.400414 0.116032 5.00018
187 1 C 6.29626 8.708715 8.22345
188 1 C 5.62417 0.307414 8.23857
189 1 C 2.070685 9.515118 11.521099
190 1 C 2.55729 9.507994 14.9394
191 1 C 1.847392 1.123367 14.9856
192 1 C 4.346895 7.661191 18.258598
193 1 C 3.465384 5.293193 1.6862
194 1 C 8.350816 8.474504 4.98384
195 1 C 9.024412 7.311802 4.929029
196 1 C 4.20144 7.474715 8.24127
197 1 C 12.483091 8.36995 11.6104
198 1 C 0.622986 7.1749 11.6731
199 1 C 0.459093 8.327188 14.921399
200 1 C 2.272204 6.435194 18.1717
201 1 C 2.927714 5.251694 18.1598
202 1 C 3.501094 2.905995 1.55992
203 1 C 2.804435 4.063194 1.73747
204 1 C 8.261214 6.139803 4.96436
205 1 C 9.009614 4.908803 4.96617
206 1 C 4.17406 5.099013 8.27907
207 1 C 3.50096 6.309918 8.3226
208 1 C 12.49499 5.95531 11.7685
209 1 C 0.684887 4.74167 11.8334
210 1 C 0.418491 5.921237 14.8706
211 1 C 12.275296 7.082607 14.8176
212 1 C 2.227105 4.021394 18.1436
213 1 C 2.897645 2.821494 18.158501
214 1 C 3.481275 0.478794 1.71527
215 1 C 2.745325 1.697093 1.60096
216 1 C 8.316114 3.716903 4.89631
217 1 C 8.977014 2.511303 4.96245
218 1 C 4.17757 2.689115 8.43554
219 1 C 3.46924 3.873916 8.36058
220 1 C 12.518192 3.49138 11.7576
221 1 C 0.648886 2.31 11.6757
222 1 C 0.44319 3.512927 14.934899
223 1 C 12.301896 4.710407 14.8917
224 1 C 2.259105 1.625194 18.2577
225 1 C 2.946654 0.439295 18.290001
226 1 C 3.491324 7.665689 1.77071
227 1 C 2.775425 8.873692 1.74053
228 1 C 8.321313 1.299802 4.929719
229 1 C 9.022115 0.105333 4.96115
230 1 C 4.16636 0.285416 8.29728
231 1 C 3.47576 1.463715 8.40399
232 1 C 12.494092 1.15748 11.6942
233 1 C 0.668586 9.545843 11.654099
234 1 C 0.440991 1.086547 15.0085
235 1 C 12.286495 2.317207 15.050499
236 1 C 2.226604 8.872591 18.235201
237 1 C 2.928695 7.651092 18.208
238 1 C 2.779224 6.474291 1.70511
239 1 C 3.55881 8.651912 8.22835
240 1 C 12.270396 9.509094 14.920299
241 1 C 6.911013 8.503304 4.93793
242 1 C 11.047293 8.38385 11.6782
243 1 C 0.854505 6.489694 18.174999
244 1 C 1.376505 4.032895 1.73351
245 1 C 0.699904 5.220193 1.71488
246 1 C 6.231812 7.305303 4.80634
247 1 C 6.916914 6.063103 4.74926
248 1 C 2.06661 6.271414 8.31804
249 1 C 1.41565 7.511212 8.35155
250 1 C 10.379292 7.16907 11.583
251 1 C 11.075489 5.95118 11.7375
252 1 C 10.879795 7.091248 14.840399
253 1 C 10.172195 8.318547 14.902199
254 1 C 0.171505 5.312094 18.1416
255 1 C 0.849804 4.076294 18.177401
256 1 C 1.324804 1.660093 1.73506
257 1 C 0.672005 2.866693 1.78372
258 1 C 6.210615 4.869403 4.70945
259 1 C 6.915214 3.681603 4.84324
260 1 C 2.10826 3.855813 8.40685
261 1 C 1.41835 5.060015 8.38194
262 1 C 10.426893 4.72709 11.686
263 1 C 11.077789 3.50959 11.7295
264 1 C 10.895696 4.723678 14.933399
265 1 C 10.209796 5.909487 14.846999
266 1 C 0.155204 2.905393 18.2129
267 1 C 0.850804 1.689095 18.2568
268 1 C 1.405604 8.909189 1.75692
269 1 C 0.663404 0.492193 1.68086
270 1 C 6.234713 2.469903 4.90069
271 1 C 6.908913 1.286803 4.97511
272 1 C 2.06982 1.458914 8.43834
273 1 C 1.37705 2.636714 8.40011
274 1 C 10.349992 2.34807 11.525
275 1 C 11.074892 1.19504 11.5856
276 1 C 10.898097 2.313047 15.029699
277 1 C 10.197895 3.523987 14.9935
278 1 C 0.179804 0.553795 18.257401
279 1 C 0.855804 8.894992 18.1831
280 1 C 1.419304 6.454792 1.66169
281 1 C 0.767304 7.67729 1.64109
282 1 C 6.199414 0.119943 5.04646
283 1 C 2.13394 8.658913 8.31489
284 1 C 1.41148 0.258718 8.39738
285 1 C 10.386793 9.576525 11.5577
286 1 C 10.865396 9.473273 14.9441
287 1 C 10.222997 1.080046 14.943899
288 1 C 0.174505 7.678792 18.1721
