ITEM: TIMESTEP
0
ITEM: NUMBER OF ATOMS
250
ITEM: BOX BOUNDS pp pp pp
0.0000000000000000e+00 1.1470000000000001e+01
0.0000000000000000e+00 1.1470000000000001e+01
0.0000000000000000e+00 1.1470000000000001e+01
ITEM: ATOMS id type element xu yu zu
1 1 C 5.51013 -0.010989 4.78624
2 1 C 4.59882 8.55084 9.07191
3 1 C 9.94166 0.020839 1.43893
4 1 C 6.9338 6.74961 5.58497
5 1 C 4.66102 0.000541 9.69535
6 1 C 1.20998 7.46046 7.41538
7 1 C 6.51901 8.46655 8.0969
8 1 C 5.54565 2.80775 8.33914
9 1 C 2.92747 8.2176 6.0006
10 1 C 9.63428 6.13605 2.13193
11 1 C 9.37 9.60798 3.31327
12 1 C 6.46711 7.14832 7.12467
13 1 C 7.33929 8.6715 0.330159
14 1 C 6.7123 1.09779 5.02575
15 1 C 9.89816 0.999384 3.88307
16 1 C 0.79304 1.74095 1.22847
17 1 C 3.0868 9.96942 9.96909
18 1 C 1.66463 4.23356 6.50324
19 1 C 9.07579 0.965588 5.62202
20 1 C 6.782 9.96952 4.09811
21 1 C 7.95325 4.91496 9.96987
22 1 C 4.11747 3.63602 7.8697
23 1 C 2.34974 0.50684 9.14724
24 1 C 9.98174 1.14528 7.17238
25 1 C 4.64784 9.21731 0.65358
26 1 C 8.99913 3.17405 0.024984
27 1 C 7.12951 7.02416 9.30325
28 1 C 3.77866 0.195764 5.57805
29 1 C 3.46481 10.0136 6.72125
30 1 C 2.457 6.34282 9.97006
31 1 C 6.45659 4.16704 8.54981
32 1 C 1.95343 1.72274 4.35038
33 1 C 5.17055 4.01806 2.59314
34 1 C 0.930977 3.48027 1.78503
35 1 C 1.46623 8.84848 8.5854
36 1 C 0.216998 6.3645 3.99691
37 1 C 2.08729 3.4546 5.00993
38 1 C 8.95013 5.36054 0.150256
39 1 C 9.21544 5.458 6.87336
40 1 C 6.92786 2.75593 9.28431
41 1 C 5.98857 8.51153 3.16999
42 1 C -0.000607 8.928 2.19314
43 1 C 7.11673 5.69361 7.54687
44 1 C 9.76205 2.31808 9.97233
45 1 C 3.27027 1.81054 9.95358
46 1 C 7.63603 3.90867 4.87786
47 1 C 2.1059 0.454298 3.30268
48 1 C 3.98196 1.48588 1.78092
49 1 C 5.72788 4.5094 0.945818
50 1 C 9.6528 4.94281 8.3819
51 1 C 5.87576 6.51867 0.767314
52 1 C 3.53452 6.15607 0.528167
53 1 C 0.583098 3.21447 4.37485
54 1 C 4.45388 8.73558 6.37119
55 1 C 8.11477 0.751463 1.19767
56 1 C 7.48476 -0.006855 5.9765
57 1 C 2.47607 9.16543 1.62644
58 1 C 9.96749 6.96866 6.23908
59 1 C 4.31458 3.47108 9.49887
60 1 C 5.68762 6.5741 9.97223
61 1 C 8.92108 3.48634 5.77607
62 1 C 2.04713 6.27183 1.52904
63 1 C 9.97763 6.2452 4.08515
64 1 C 0.284572 1.73739 8.19807
65 1 C 0.444251 9.8891 6.60049
66 1 C 1.42929 6.05991 3.05984
67 1 C 10.0016 1.25194 0.312919
68 1 C 0.234482 0.000975 7.93303
69 1 C 5.5426 0.025938 6.43697
70 1 C 8.32347 2.26665 4.93705
71 1 C 4.64562 2.4869 2.92186
72 1 C 0.020636 9.55407 0.003358
73 1 C 4.72959 3.06765 4.57229
74 1 C 3.33542 7.49464 9.17993
75 1 C 6.69462 7.78208 1.70889
76 1 C 7.62823 3.02763 7.67985
77 1 C 8.25788 9.72246 5.45985
78 1 C 5.17499 4.90445 7.80956
79 1 C 2.82658 7.14677 7.25608
80 1 C 7.13869 4.04037 1.66501
81 1 C 8.15885 0.789272 4.28763
82 1 C 0.0597 3.03033 0.277551
83 1 C 3.00665 8.60801 8.00581
84 1 C 3.54139 6.19381 2.18241
85 1 C 0.30858 6.51963 0.258107
86 1 C -0.002035 6.62811 5.61176
87 1 C 6.2107 3.52956 7.00642
88 1 C 7.43369 9.4339 7.05568
89 1 C 1.69251 8.5502 3.02429
90 1 C 8.67976 4.666 1.62211
91 1 C 9.93402 2.79717 2.80306
92 1 C 9.56794 5.32843 9.9936
93 1 C 9.79872 3.89698 7.1178
94 1 C 3.31776 2.32709 4.9968
95 1 C 9.96477 2.26505 5.17408
96 1 C 5.10719 5.67233 1.97596
97 1 C 1.45525 7.6445 9.74774
98 1 C 9.97114 7.97894 2.31625
99 1 C 2.98304 7.75481 2.32256
100 1 C 0.882146 5.12311 1.26241
101 1 C 4.71103 3.63405 6.32734
102 1 C 5.77911 4.92769 9.91603
103 1 C 8.80593 9.6802 7.93758
104 1 C 9.8278 9.96886 5.01429
105 1 C 6.06302 8.20579 9.74609
106 1 C 2.73807 3.59624 9.96969
107 1 C 7.41471 8.3079 5.8498
108 1 C 7.84032 6.76012 0.400709
109 1 C 0.399484 -0.018875 6.26685
110 1 C 9.978 6.53177 8.94204
111 1 C 5.87596 8.78977 5.53564
112 1 C 5.98037 7.17842 4.17686
113 1 C 3.2806 6.66991 5.58208
114 1 C 2.86963 7.95842 0.577018
115 1 C 9.97016 4.4673 2.63114
116 1 C 4.34005 6.08789 7.00845
117 1 C 1.36567 4.09674 9.02809
118 1 C 8.28715 8.1153 7.86202
119 1 C 0.293894 5.55056 6.82496
120 1 C 7.63506 4.20607 6.52082
121 1 C 0.859711 9.97236 3.13892
122 1 C 7.81783 8.61197 3.53019
123 1 C 1.8617 2.38594 7.12218
124 1 C 1.9361 9.6021 7.19375
125 1 C 1.60954 2.83455 3.15323
126 1 C 2.47072 3.73964 7.85558
127 1 C 3.60893 0.060436 3.90225
128 1 C 8.03904 4.55785 8.29141
129 1 C 5.5434 9.96853 8.91176
130 1 C -0.018838 5.39015 2.60877
131 1 C 9.91725 2.53011 8.03455
132 1 C 6.67119 3.01498 0.00276
133 1 C 1.34377 7.82749 1.61234
134 1 C 7.97724 5.46874 5.51076
135 1 C 8.89925 4.99985 4.21607
136 1 C 3.42975 2.15759 7.59894
137 1 C 1.20918 1.34119 5.78993
138 1 C 4.91456 7.80415 7.64431
139 1 C 0.01714 6.86168 1.84369
140 1 C 5.85912 2.03209 3.96199
141 1 C -0.019885 8.7113 4.95886
142 1 C 3.84349 0.891061 8.57076
143 1 C 3.91495 3.86588 1.5005
144 1 C 1.66302 4.19134 0.00053
145 1 C 9.01712 3.52301 9.12279
146 1 C 2.28998 0.001665 4.89198
147 1 C 3.04526 4.75328 4.56877
148 1 C 2.61013 9.56467 4.83302
149 1 C 8.77044 2.18914 6.83529
150 1 C 2.76036 5.33177 8.18998
151 1 C 5.34634 0.010693 -3e-06
152 1 C 7.86455 2.50016 1.02176
153 1 C 6.99822 0 0.003069
154 1 C 6.17909 1.26041 8.34657
155 1 C 6.0136 1.58265 2.02175
156 1 C 3.44913 4.26395 3.04805
157 1 C 6.76959 5.36071 -0.010272
158 1 C 7.41718 1.04923 2.64322
159 1 C 8.84218 0.253416 2.91047
160 1 C 1.43558 4.97201 4.88254
161 1 C 9.30565 0.75152 9.72919
162 1 C 2.52354 9.9797 3.0611
163 1 C 8.39574 7.56783 2.04749
164 1 C 1.85128 4.47415 3.3661
165 1 C 9.96916 9.01969 6.90675
166 1 C 4.57174 1.99349 6.04064
167 1 C 4.67202 -2e-06 1.51384
168 1 C 8.56237 1.98355 3.27266
169 1 C 4.3246 8.3215 3.09883
170 1 C 4.42623 8.62008 4.72639
171 1 C 1.92612 5.82456 6.85275
172 1 C 4.08178 -0.0006 7.2037
173 1 C 2.3006 2.88963 1.07544
174 1 C 7.19206 9.96966 8.97834
175 1 C 1.38169 8.77055 5.84046
176 1 C 5.85709 5.69894 6.49008
177 1 C 8.42123 6.55155 8.39167
178 1 C 1.555 7.13504 5.82094
179 1 C 3.29648 0.065019 0.299653
180 1 C 4.39562 4.70495 -0.000109
181 1 C -0.001 4.68406 -0.001559
182 1 C 6.37058 3.5802 3.63575
183 1 C 2.88401 0.005451 1.93385
184 1 C 6.47743 5.22186 2.98197
185 1 C 9.31763 7.76964 3.81681
186 1 C 5.25203 9.97162 2.94443
187 1 C 4.94751 2.02491 -0.00124
188 1 C 4.02377 9.87906 8.2751
189 1 C 0.005058 8.04442 6.46583
190 1 C -0.000356 4.34477 5.73772
191 1 C 2.65278 6.30763 4.08874
192 1 C -4.1e-05 7.41732 9.00406
193 1 C 6.09297 4.05814 5.44308
194 1 C 3.20037 9.66794 0.001758
195 1 C 4.51501 1.2819 4.55402
196 1 C 8.06801 5.66153 2.94514
197 1 C 3.12773 1.7109 0.000736
198 1 C 2.80191 1.35486 6.22515
199 1 C 8.4299 3.59865 2.83912
200 1 C 3.5986 4.88885 6.15055
201 1 C 0.007042 1.68895 4.61613
202 1 C 1.45478 7.43589 4.20411
203 1 C 9.64365 3.51594 4.15254
204 1 C 5.1645 7.25588 6.11049
205 1 C 8.93629 -0.044189 0.033059
206 1 C 2.08153 6.66622 -0.072715
207 1 C 3.46463 3.34311 0.00141
208 1 C -0.002006 2.47239 3.02002
209 1 C 3.98679 5.0995 9.90326
210 1 C 8.58874 1.44258 8.40976
211 1 C -0.014572 8.06348 0.704208
212 1 C 4.2926 5.91216 3.60189
213 1 C 3.02462 7.94321 4.05955
214 1 C 2.42992 4.63143 1.56946
215 1 C 5.03123 0.600333 3.02165
216 1 C 7.1379 2.63428 2.52311
217 1 C 6.66926 1.18487 6.77293
218 1 C 4.86818 1.8197 9.49794
219 1 C 3.32086 1.64996 3.47332
220 1 C 6.78802 -0.003662 3.75159
221 1 C 5.03772 5.94983 5.06624
222 1 C 6.14229 0.66757 9.96764
223 1 C 6.27401 -0.034041 2.09767
224 1 C -0.00484 4.74127 4.1236
225 1 C 7.34398 0.000339 8.07799
226 1 C 5.18064 4.62045 4.09816
227 1 C 7.28507 7.09811 3.1704
228 1 C 0.739358 2.89247 6.00968
229 1 C 8.79902 6.82989 5.08041
230 1 C 9.09719 9.30239 0.121807
231 1 C 3.9244 9.96943 3.92454
232 1 C 7.16646 5.69009 1.55877
233 1 C 7.0481 2.62903 5.94932
234 1 C 6.54834 5.47322 4.61276
235 1 C 7.76382 1.43181 9.84032
236 1 C 0.015389 7.93478 3.50396
237 1 C 2.35101 1.63464 2.1455
238 1 C 3.08802 3.29124 6.39143
239 1 C 1.01482 9.98223 4.77758
240 1 C 8.31944 6.84415 6.76974
241 1 C 0.356989 5.39535 9.1654
242 1 C 9.52594 1.41664 1.90694
243 1 C 1.53983 8.96487 0.263062
244 1 C 0.765329 9.40313 9.97386
245 1 C 4.78336 7.53978 0.069794
246 1 C 8.8364 -0.011198 6.92044
247 1 C 1.76628 2.33837 9.52706
248 1 C 4.50654 6.29947 8.65293
249 1 C 5.17717 2.86103 1.39977
250 1 C 5.02907 7.88567 1.66898
ITEM: TIMESTEP
20
ITEM: NUMBER OF ATOMS
250
ITEM: BOX BOUNDS pp pp pp
0.0000000000000000e+00 1.1470000000000001e+01
0.0000000000000000e+00 1.1470000000000001e+01
0.0000000000000000e+00 1.1470000000000001e+01
ITEM: ATOMS id type element xu yu zu
1 1 C 5.65758 -0.0332592 4.76908
2 1 C 4.54454 8.51177 9.17542
3 1 C 9.78033 -0.290002 1.73457
4 1 C 6.77385 6.81353 5.53238
5 1 C 4.81332 -0.47562 9.75253
6 1 C 0.81573 7.45763 7.48468
7 1 C 6.55877 8.49542 7.93981
8 1 C 5.41682 2.8043 8.37464
9 1 C 2.73737 7.81444 6.07606
10 1 C 9.22356 6.25987 2.40093
11 1 C 9.25826 9.695 3.18918
12 1 C 6.54489 7.33714 7.38874
13 1 C 7.5869 8.97037 0.707813
14 1 C 6.50975 1.72759 5.28186
15 1 C 9.99637 1.04315 3.59581
16 1 C 0.556456 1.64867 0.756434
17 1 C 3.44187 9.86645 10.1752
18 1 C 1.15049 4.42374 6.41982
19 1 C 9.68441 1.12693 5.69864
20 1 C 6.8368 9.91105 4.16108
21 1 C 8.14321 5.07953 9.87447
22 1 C 4.30375 3.6596 8.01587
23 1 C 2.22629 0.921729 9.52542
24 1 C 10.0393 1.3226 7.58026
25 1 C 4.84603 9.11485 0.411134
26 1 C 8.98932 3.07682 -0.323975
27 1 C 7.12745 6.77861 9.53579
28 1 C 3.48808 -0.312056 5.7198
29 1 C 3.66322 9.75155 6.8573
30 1 C 2.44068 6.32552 9.94603
31 1 C 6.22001 4.60819 8.74469
32 1 C 1.7709 1.50118 4.38544
33 1 C 5.08495 4.23448 2.36748
34 1 C 0.697993 3.46503 1.54204
35 1 C 1.64557 8.82063 8.37186
36 1 C 0.233433 6.37547 4.14195
37 1 C 2.13185 3.46521 5.38917
38 1 C 9.10663 5.74592 0.152577
39 1 C 9.39752 5.29312 6.77957
40 1 C 7.02863 2.50065 9.73181
41 1 C 6.11632 8.50672 2.81222
42 1 C -0.521576 9.07138 2.33923
43 1 C 7.18006 6.29676 7.64642
44 1 C 9.87755 2.61128 9.79692
45 1 C 3.3847 1.64589 9.86994
46 1 C 7.35296 3.70402 4.44336
47 1 C 1.88899 0.458695 3.60507
48 1 C 4.09678 1.60149 1.61262
49 1 C 5.91366 4.33269 0.442367
50 1 C 9.65959 4.98516 8.07537
51 1 C 5.79505 6.40937 1.13555
52 1 C 3.94574 5.87901 0.672749
53 1 C 0.074351 3.37193 4.25756
54 1 C 4.83994 8.86489 6.19022
55 1 C 7.99748 0.571466 1.12701
56 1 C 7.48382 -0.196191 6.13553
57 1 C 2.66728 9.15581 1.61728
58 1 C 10.0015 7.1184 6.35393
59 1 C 4.18459 3.54671 9.34819
60 1 C 5.80301 6.6136 9.52099
61 1 C 9.33767 3.39568 5.97138
62 1 C 2.26419 5.85248 1.37839
63 1 C 9.81947 6.31874 3.91479
64 1 C 0.288729 1.34816 8.25443
65 1 C 0.633822 9.97668 6.93386
66 1 C 1.63649 5.95639 3.24601
67 1 C 9.87611 1.30515 0.345218
68 1 C 0.500825 0.136941 8.02628
69 1 C 5.50403 0.0285889 6.48149
70 1 C 8.32363 2.2886 4.68693
71 1 C 4.44264 2.47736 3.06959
72 1 C -0.413977 9.50542 0.260739
73 1 C 4.66471 3.06388 4.38243
74 1 C 3.3916 7.51182 9.45067
75 1 C 6.77643 8.03352 1.70852
76 1 C 7.8234 2.99455 7.93612
77 1 C 8.26508 9.4836 5.12651
78 1 C 5.35703 4.81865 7.70468
79 1 C 2.83509 7.28077 7.22579
80 1 C 7.31843 4.09136 1.32638
81 1 C 7.79302 0.440786 4.17765
82 1 C 0.193676 3.17032 0.139549
83 1 C 2.80971 8.30827 8.14508
84 1 C 3.29935 6.14639 2.25254
85 1 C 0.280152 6.67854 0.304134
86 1 C -0.261974 6.41672 5.94421
87 1 C 6.19657 3.19956 7.15878
88 1 C 7.39142 9.84815 7.19326
89 1 C 1.67459 8.58904 3.60356
90 1 C 9.15817 4.66892 1.63276
91 1 C 9.87964 2.96874 3.00245
92 1 C 9.48573 5.6078 9.87068
93 1 C 10.2359 3.92254 7.02992
94 1 C 3.31466 2.44216 4.55195
95 1 C 10.2385 2.5616 5.02067
96 1 C 4.95134 5.72445 2.07575
97 1 C 1.29023 7.59637 9.98018
98 1 C 9.67852 7.76735 2.31008
99 1 C 3.00694 7.86427 2.21978
100 1 C 0.861517 5.2121 1.02446
101 1 C 4.64196 3.58686 6.11518
102 1 C 5.75734 4.94228 9.76317
103 1 C 8.73735 9.17191 7.89754
104 1 C 9.83902 9.39875 4.57931
105 1 C 5.73252 7.93124 9.58478
106 1 C 2.47425 3.38268 9.7812
107 1 C 7.61745 8.47223 5.9341
108 1 C 8.28695 6.43674 0.85131
109 1 C 0.358592 0.0682882 6.27916
110 1 C 9.84961 6.74237 9.32114
111 1 C 6.00738 8.7204 5.39972
112 1 C 5.82457 7.39825 4.17749
113 1 C 3.39933 6.84873 5.10443
114 1 C 2.81277 7.96708 0.54782
115 1 C 10.1973 4.28408 2.1922
116 1 C 4.03687 6.16944 7.27026
117 1 C 1.60136 4.30723 8.93411
118 1 C 8.3682 8.05683 8.19395
119 1 C 0.0908048 5.4614 6.89646
120 1 C 7.59288 4.38244 6.25218
121 1 C 1.17337 9.8432 3.26499
122 1 C 7.72981 8.75125 3.64862
123 1 C 1.88173 2.40076 7.39914
124 1 C 1.88774 10.102 7.48659
125 1 C 1.37508 2.91797 2.86394
126 1 C 2.41459 3.81126 7.95379
127 1 C 3.86652 -0.192035 3.80584
128 1 C 7.72159 4.74079 8.41798
129 1 C 5.41205 10.3886 8.8724
130 1 C -0.260955 4.98736 2.44171
131 1 C 10.239 2.37649 8.34575
132 1 C 6.338 3.00063 0.133165
133 1 C 1.78002 7.52736 1.60708
134 1 C 7.94831 5.55704 5.64303
135 1 C 8.61813 5.02395 4.2534
136 1 C 3.49215 1.88276 7.75696
137 1 C 0.927784 1.30711 5.52543
138 1 C 5.09638 7.92265 7.87309
139 1 C 0.260856 7.07087 1.80944
140 1 C 5.80538 2.21365 4.03975
141 1 C 0.194287 9.06242 4.79482
142 1 C 3.56699 0.756222 8.67372
143 1 C 3.35856 3.5719 1.52461
144 1 C 1.64456 4.0809 -0.17628
145 1 C 9.15083 3.49912 9.04961
146 1 C 2.14354 -0.48579 4.84761
147 1 C 3.21147 4.63645 4.52037
148 1 C 2.80098 10.0221 5.08237
149 1 C 8.86182 2.23182 6.72248
150 1 C 2.53291 5.24259 7.78999
151 1 C 5.53122 0.367797 0.277406
152 1 C 8.10052 2.66715 0.780941
153 1 C 7.52482 0.0280193 0.12585
154 1 C 6.34754 1.54113 8.25042
155 1 C 6.37743 1.72734 2.04679
156 1 C 3.46276 4.37169 2.76732
157 1 C 6.81617 5.31739 -0.0504806
158 1 C 7.7822 1.21325 2.70009
159 1 C 8.78854 0.000560859 3.03626
160 1 C 1.75969 4.81453 4.91654
161 1 C 9.43389 0.931248 10.0037
162 1 C 2.34654 9.80677 2.57107
163 1 C 8.40067 7.67357 1.74469
164 1 C 1.49659 4.30416 3.25947
165 1 C 10.1071 9.45299 6.90184
166 1 C 4.8062 2.07147 6.11064
167 1 C 4.74123 -0.0787046 1.54804
168 1 C 8.64746 2.15771 3.23776
169 1 C 4.49061 7.69308 3.117
170 1 C 4.68561 8.85669 4.43629
171 1 C 1.90419 5.67086 6.7656
172 1 C 4.20119 0.149449 7.0449
173 1 C 2.53759 2.74224 0.916301
174 1 C 7.10198 10.0357 9.00889
175 1 C 1.3081 8.71893 6.00139
176 1 C 5.92492 5.2529 6.66528
177 1 C 8.33252 6.89815 8.57025
178 1 C 1.50437 7.37831 5.54841
179 1 C 2.98421 0.0235594 0.373167
180 1 C 4.19402 4.64018 -0.102895
181 1 C 0.116874 5.28198 -0.24176
182 1 C 6.65167 3.40122 3.50722
183 1 C 2.47308 -0.0952773 1.91632
184 1 C 6.4323 4.71301 2.87451
185 1 C 9.68298 7.85643 3.80379
186 1 C 5.38188 9.99497 2.73693
187 1 C 4.93491 2.28462 -0.00962753
188 1 C 4.22828 9.94385 8.41953
189 1 C -0.0472052 8.32971 6.61176
190 1 C 0.278802 4.42891 5.28852
191 1 C 2.78877 6.45455 4.05094
192 1 C 0.319704 7.13724 8.93137
193 1 C 6.39401 4.09061 5.36774
194 1 C 2.85624 9.83551 -0.0400576
195 1 C 4.39128 1.26682 5.13613
196 1 C 8.11035 5.88655 2.99656
197 1 C 3.09581 1.47155 -0.295182
198 1 C 2.92112 1.47282 6.68175
199 1 C 8.58949 3.71025 2.68778
200 1 C 3.70889 4.76865 6.12258
201 1 C -0.433593 1.75086 4.27225
202 1 C 1.46992 7.50383 4.26529
203 1 C 9.80219 3.62092 4.32242
204 1 C 4.82057 7.10637 6.23098
205 1 C 9.03878 0.00558791 0.0707575
206 1 C 2.04792 6.64063 -0.289035
207 1 C 3.63654 3.14103 -0.000346038
208 1 C 0.05322 2.41369 3.31179
209 1 C 3.97771 4.85078 10.0653
210 1 C 8.25181 1.18425 8.55798
211 1 C -0.200346 8.21835 0.842835
212 1 C 4.46403 5.92811 3.29274
213 1 C 3.35443 7.74464 4.27917
214 1 C 2.37756 4.36349 1.56885
215 1 C 4.69685 0.549224 3.08115
216 1 C 7.09798 2.66142 2.56379
217 1 C 6.13801 1.24887 6.79453
218 1 C 4.82569 1.6962 9.35344
219 1 C 3.05492 1.71006 3.38125
220 1 C 6.65362 -0.0413352 3.95846
221 1 C 4.51059 6.04324 5.29446
222 1 C 6.39424 0.361741 9.93354
223 1 C 5.95791 -0.0296211 2.27783
224 1 C -0.214974 4.91961 4.14924
225 1 C 7.3297 -0.290444 8.25459
226 1 C 4.94578 4.78522 4.37411
227 1 C 7.40703 6.83389 3.44883
228 1 C 0.729367 3.10328 5.9549
229 1 C 9.21346 6.96524 4.79649
230 1 C 9.18164 9.37128 0.146599
231 1 C 3.69044 9.89288 3.73621
232 1 C 7.48562 5.55853 1.77297
233 1 C 7.24842 2.38695 5.91656
234 1 C 6.25377 5.66193 4.34179
235 1 C 7.6608 1.61482 10.1424
236 1 C -0.200966 7.74465 3.68383
237 1 C 2.40569 1.85427 1.91154
238 1 C 2.98186 3.37645 6.21825
239 1 C 1.11477 9.89499 4.53725
240 1 C 8.44281 7.0408 6.65129
241 1 C 0.196511 4.9392 9.09221
242 1 C 9.68115 1.45244 1.45822
243 1 C 0.933963 9.20796 0.128483
244 1 C 0.966366 8.87758 9.89169
245 1 C 4.90668 7.30351 0.0493153
246 1 C 8.61174 0.0771965 7.19341
247 1 C 1.69502 2.26754 9.5961
248 1 C 4.48382 6.59529 8.81511
249 1 C 4.872 2.99552 1.51382
250 1 C 5.39177 8.08197 1.61499
ITEM: TIMESTEP
40
ITEM: NUMBER OF ATOMS
250
ITEM: BOX BOUNDS pp pp pp
0.0000000000000000e+00 1.1470000000000001e+01
0.0000000000000000e+00 1.1470000000000001e+01
0.0000000000000000e+00 1.1470000000000001e+01
ITEM: ATOMS id type element xu yu zu
1 1 C 5.4425 0.106866 5.25672
2 1 C 4.35717 8.56027 9.38671
3 1 C 9.58446 -0.490675 1.94368
4 1 C 6.65621 6.73272 5.32836
5 1 C 4.80607 -0.90116 10.2679
6 1 C 0.152259 7.62077 8.02574
7 1 C 6.79477 9.00109 7.96944
8 1 C 5.32285 2.55568 8.5936
9 1 C 2.56801 7.24119 5.96868
10 1 C 9.45211 6.42632 2.62555
11 1 C 9.14267 9.89991 3.05163
12 1 C 6.20409 7.55989 7.32647
13 1 C 8.10156 9.33387 0.945406
14 1 C 5.98624 2.1494 5.28095
15 1 C 9.93963 0.624657 3.2033
16 1 C 0.149088 1.59053 0.114465
17 1 C 3.91709 9.9123 10.4411
18 1 C 0.427942 4.60413 6.48333
19 1 C 10.1992 1.24137 5.98268
20 1 C 6.95 9.71379 4.39794
21 1 C 8.22426 5.22606 9.74499
22 1 C 4.55022 3.71353 8.16479
23 1 C 2.06597 1.07336 9.84717
24 1 C 10.038 1.38029 7.83248
25 1 C 5.06672 8.82097 0.205861
26 1 C 9.171 2.8865 -0.597105
27 1 C 7.35771 6.49664 9.95572
28 1 C 3.09086 -0.508085 6.14419
29 1 C 3.96964 9.48781 7.1679
30 1 C 2.66956 6.41712 9.85833
31 1 C 6.11519 4.83022 8.77855
32 1 C 1.43029 1.40668 4.54589
33 1 C 5.08424 4.37684 2.06875
34 1 C 0.25705 3.42857 1.30383
35 1 C 1.66596 9.06399 8.3344
36 1 C 0.197145 6.47449 4.32381
37 1 C 1.96433 3.15764 5.32098
38 1 C 9.58476 5.97372 0.0299554
39 1 C 9.65079 5.19197 6.58522
40 1 C 6.89394 2.72579 10.1585
41 1 C 6.1858 8.78571 2.49906
42 1 C -1.09894 9.39436 2.41908
43 1 C 7.58798 6.40112 7.8946
44 1 C 9.97932 2.81645 9.81703
45 1 C 3.71467 1.31954 9.99327
46 1 C 7.66543 3.70152 4.44102
47 1 C 1.75976 0.251154 3.84084
48 1 C 4.27867 1.43634 1.42048
49 1 C 6.17533 4.14841 -0.381617
50 1 C 9.76548 4.6925 7.94158
51 1 C 5.88022 6.62287 1.27436
52 1 C 4.42131 5.68376 0.661819
53 1 C -0.323789 3.64508 4.3657
54 1 C 5.1103 8.95395 6.00331
55 1 C 7.8406 0.68457 1.39581
56 1 C 7.77383 -0.572836 6.46559
57 1 C 3.15259 9.01543 0.960031
58 1 C 9.9459 7.25469 6.19784
59 1 C 3.64828 3.80694 9.38451
60 1 C 5.84052 6.50862 9.16845
61 1 C 9.96747 3.27225 6.4408
62 1 C 2.34299 5.45858 1.02549
63 1 C 9.72289 5.8474 3.75142
64 1 C 0.260459 1.39331 8.4416
65 1 C 0.781645 10.3725 7.16026
66 1 C 1.56966 5.65744 3.49817
67 1 C 10.1135 1.20291 -0.24654
68 1 C 0.883096 0.0973842 7.92844
69 1 C 5.60883 -0.155646 6.42381
70 1 C 8.0455 2.39726 4.3887
71 1 C 4.28296 2.13801 3.1266
72 1 C -1.04127 9.46063 0.472523
73 1 C 4.46429 3.2741 4.31269
74 1 C 3.58572 7.39311 9.55254
75 1 C 7.19001 8.43858 1.43375
76 1 C 8.21028 2.99637 8.36045
77 1 C 8.42807 9.12349 4.79632
78 1 C 5.26571 4.7334 7.73427
79 1 C 2.98912 7.33163 7.35362
80 1 C 7.49448 4.12157 0.936884
81 1 C 7.78459 0.165643 4.1261
82 1 C 0.490715 3.13077 0.0033427
83 1 C 2.64173 7.80664 8.60554
84 1 C 3.18886 6.11219 2.3012
85 1 C 0.137011 6.85176 0.222362
86 1 C -0.587897 6.36357 6.2762
87 1 C 6.45761 2.72882 7.40968
88 1 C 7.32586 10.037 7.21797
89 1 C 1.93866 8.58995 3.93195
90 1 C 9.62495 4.68943 1.26079
91 1 C 9.95578 3.3567 2.95058
92 1 C 9.44481 5.82271 10.1912
93 1 C 10.7845 4.13749 7.04107
94 1 C 3.36427 2.4706 4.16542
95 1 C 10.4423 2.7539 5.29492
96 1 C 5.03046 5.62133 1.66042
97 1 C 0.863472 7.14119 10.1681
98 1 C 9.17949 7.67821 2.3651
99 1 C 3.22409 7.90572 2.02976
100 1 C 0.531833 5.22477 0.95533
101 1 C 4.48738 3.28931 5.82248
102 1 C 5.48268 5.25419 10.2426
103 1 C 9.10563 9.13569 7.55718
104 1 C 9.67243 9.15918 4.32207
105 1 C 5.62502 7.95865 9.73688
106 1 C 1.9783 3.42861 9.78752
107 1 C 7.76763 8.66633 5.97369
108 1 C 8.62537 6.31667 1.22786
109 1 C 0.38454 0.174877 6.38207
110 1 C 9.82484 7.09061 9.5719
111 1 C 6.18774 8.90851 5.05931
112 1 C 5.96755 7.53562 4.12453
113 1 C 3.37655 6.8944 5.00031
114 1 C 2.64381 7.8584 0.340905
115 1 C 10.6002 3.53184 1.5373
116 1 C 3.66981 6.34598 7.87041
117 1 C 1.61869 4.68074 8.99013
118 1 C 8.51592 8.35293 8.5619
119 1 C -0.115886 5.56344 7.22587
120 1 C 7.57968 4.72234 6.19933
121 1 C 1.21659 9.60714 2.87445
122 1 C 7.83435 9.1003 3.6373
123 1 C 1.78417 2.37152 7.78592
124 1 C 1.84249 10.5718 8.10598
125 1 C 0.905704 2.95919 2.36347
126 1 C 2.32462 3.76024 7.80472
127 1 C 4.27541 -0.4781 3.78873
128 1 C 7.3559 4.88477 8.68881
129 1 C 5.50114 10.7123 8.7257
130 1 C -0.0869186 4.85137 2.25701
131 1 C 10.9388 2.37302 8.75548
132 1 C 6.07084 2.79008 -0.118777
133 1 C 2.03388 7.12363 1.73805
134 1 C 8.28595 5.81237 5.61041
135 1 C 8.23659 4.8756 4.3182
136 1 C 3.70568 1.49474 7.97405
137 1 C 0.432723 1.22396 5.39025
138 1 C 5.34017 8.1408 8.16858
139 1 C 0.588394 7.43577 1.51289
140 1 C 5.64695 2.62296 4.15669
141 1 C -0.324574 9.18948 4.8477
142 1 C 3.27775 0.5279 8.77525
143 1 C 3.09527 3.23045 1.58381
144 1 C 1.44428 3.77468 -0.612856
145 1 C 9.25448 3.55571 8.75985
146 1 C 1.69096 -0.515395 4.8742
147 1 C 3.41855 4.59408 4.34097
148 1 C 3.34838 9.88547 5.19204
149 1 C 8.71681 2.38072 6.70379
150 1 C 2.44357 5.15016 7.68675
151 1 C 5.7417 0.723667 0.405705
152 1 C 8.20044 3.06098 0.183295
153 1 C 7.85893 -0.0628326 -0.0111478
154 1 C 6.57366 1.7224 7.99653
155 1 C 6.71969 1.49931 1.83997
156 1 C 3.46573 4.42963 2.75858
157 1 C 6.73396 5.33572 -0.349445
158 1 C 8.12172 1.19154 2.46082
159 1 C 9.13568 -0.443455 3.46585
160 1 C 2.12848 4.46059 4.76974
161 1 C 9.44846 1.21846 10.2597
162 1 C 2.32732 10.2527 2.14522
163 1 C 8.28892 7.834 1.07794
164 1 C 1.43807 4.40165 3.14168
165 1 C 10.1989 9.78699 7.07449
166 1 C 5.2144 2.26852 6.41502
167 1 C 4.82845 0.0281565 1.16646
168 1 C 9.00933 2.29741 3.29144
169 1 C 4.65256 7.34854 3.25181
170 1 C 4.65271 9.25631 4.19453
171 1 C 1.61009 5.50592 6.4937
172 1 C 4.23092 -0.0553784 6.63964
173 1 C 2.66987 2.20686 0.235765
174 1 C 6.7112 10.0608 9.19074
175 1 C 0.922067 8.88809 6.05799
176 1 C 6.26238 4.87832 6.54779
177 1 C 8.15219 7.17162 9.28664
178 1 C 1.36579 7.56739 5.56936
179 1 C 2.54216 -0.105233 0.564334
180 1 C 3.87068 4.61688 -0.0541259
181 1 C 0.170754 5.80792 -0.542379
182 1 C 6.60071 3.13815 3.3189
183 1 C 1.92571 -0.0950645 1.69574
184 1 C 6.10775 4.27199 2.89902
185 1 C 10.0789 8.04864 3.7983
186 1 C 5.69637 9.89224 2.44613
187 1 C 4.94178 2.3914 0.167345
188 1 C 4.30926 9.75384 8.42912
189 1 C -0.390342 8.71488 6.90324
190 1 C 0.573092 4.59749 4.91943
191 1 C 2.68375 6.24792 3.78619
192 1 C 0.45893 6.64179 8.89654
193 1 C 6.56966 4.29796 5.53849
194 1 C 2.56668 10.2064 -0.10472
195 1 C 4.05203 1.10475 5.74615
196 1 C 7.98434 5.85928 3.31262
197 1 C 2.99757 0.880517 -0.253017
198 1 C 2.61488 1.65866 6.97157
199 1 C 8.78255 3.96924 2.4209
200 1 C 3.91128 4.6867 5.85367
201 1 C -0.849705 1.27183 4.09156
202 1 C 1.37402 7.2002 4.05168
203 1 C 9.91794 4.09241 4.41593
204 1 C 4.63349 6.85459 6.69943
205 1 C 9.26596 -0.192714 0.0718791
206 1 C 2.01883 6.87232 -0.442557
207 1 C 3.96977 3.14168 -0.126797
208 1 C 0.133818 2.43859 3.35184
209 1 C 4.34375 4.74344 10.0759
210 1 C 7.82237 0.694227 8.78691
211 1 C -0.367918 8.37025 1.1014
212 1 C 4.49525 6.14454 2.99674
213 1 C 3.99036 8.21263 4.00151
214 1 C 2.05789 4.34977 1.7562
215 1 C 4.42462 0.625456 2.87934
216 1 C 7.27913 2.73809 1.99775
217 1 C 5.50233 1.13258 7.03336
218 1 C 4.80053 1.61424 9.35029
219 1 C 2.73951 1.93544 3.07493
220 1 C 6.41055 -0.571527 4.06135
221 1 C 4.18829 5.98474 5.80367
222 1 C 6.67372 0.154029 10.2033
223 1 C 5.58608 -0.194098 2.67643
224 1 C -0.743169 5.30905 3.84206
225 1 C 7.60529 -0.486612 8.4919
226 1 C 4.64274 5.2087 4.59326
227 1 C 7.26077 7.12912 4.06069
228 1 C 0.880806 3.06226 6.0301
229 1 C 9.59616 7.21731 4.78884
230 1 C 9.13808 9.60114 0.125261
231 1 C 3.45799 9.8828 3.67734
232 1 C 7.54243 5.30724 1.92062
233 1 C 7.83493 2.11579 5.90654
234 1 C 5.95879 5.72265 3.85712
235 1 C 7.74109 1.19515 10.473
236 1 C -0.17567 7.69882 3.98765
237 1 C 2.53741 1.89922 1.85513
238 1 C 3.3025 3.57327 6.38716
239 1 C 0.967409 9.9978 4.35246
240 1 C 8.67336 7.44277 6.55007
241 1 C 0.190892 4.50099 9.011
242 1 C 9.99694 1.47863 1.46968
243 1 C 0.328425 9.72206 -0.314942
244 1 C 1.19796 8.66095 9.74834
245 1 C 4.88724 6.91581 0.147481
246 1 C 8.39563 0.238353 7.40317
247 1 C 1.24407 2.12851 9.48552
248 1 C 4.48113 6.75727 8.78182
249 1 C 4.44049 2.8975 1.87011
250 1 C 5.49514 8.33146 1.3096