ITEM: TIMESTEP
0
ITEM: NUMBER OF ATOMS
250
ITEM: BOX BOUNDS pp pp pp
0.0000000000000000e+00 1.1470000000000001e+01
0.0000000000000000e+00 1.1470000000000001e+01
0.0000000000000000e+00 1.1470000000000001e+01
ITEM: ATOMS id type element xu yu zu
1 1 C 5.51013 -0.010989 4.78624
2 1 C 4.59882 8.55084 9.07191
3 1 C 9.94166 0.020839 1.43893
4 1 C 6.9338 6.74961 5.58497
5 1 C 4.66102 0.000541 9.69535
6 1 C 1.20998 7.46046 7.41538
7 1 C 6.51901 8.46655 8.0969
8 1 C 5.54565 2.80775 8.33914
9 1 C 2.92747 8.2176 6.0006
10 1 C 9.63428 6.13605 2.13193
11 1 C 9.37 9.60798 3.31327
12 1 C 6.46711 7.14832 7.12467
13 1 C 7.33929 8.6715 0.330159
14 1 C 6.7123 1.09779 5.02575
15 1 C 9.89816 0.999384 3.88307
16 1 C 0.79304 1.74095 1.22847
17 1 C 3.0868 9.96942 9.96909
18 1 C 1.66463 4.23356 6.50324
19 1 C 9.07579 0.965588 5.62202
20 1 C 6.782 9.96952 4.09811
21 1 C 7.95325 4.91496 9.96987
22 1 C 4.11747 3.63602 7.8697
23 1 C 2.34974 0.50684 9.14724
24 1 C 9.98174 1.14528 7.17238
25 1 C 4.64784 9.21731 0.65358
26 1 C 8.99913 3.17405 0.024984
27 1 C 7.12951 7.02416 9.30325
28 1 C 3.77866 0.195764 5.57805
29 1 C 3.46481 10.0136 6.72125
30 1 C 2.457 6.34282 9.97006
31 1 C 6.45659 4.16704 8.54981
32 1 C 1.95343 1.72274 4.35038
33 1 C 5.17055 4.01806 2.59314
34 1 C 0.930977 3.48027 1.78503
35 1 C 1.46623 8.84848 8.5854
36 1 C 0.216998 6.3645 3.99691
37 1 C 2.08729 3.4546 5.00993
38 1 C 8.95013 5.36054 0.150256
39 1 C 9.21544 5.458 6.87336
40 1 C 6.92786 2.75593 9.28431
41 1 C 5.98857 8.51153 3.16999
42 1 C -0.000607 8.928 2.19314
43 1 C 7.11673 5.69361 7.54687
44 1 C 9.76205 2.31808 9.97233
45 1 C 3.27027 1.81054 9.95358
46 1 C 7.63603 3.90867 4.87786
47 1 C 2.1059 0.454298 3.30268
48 1 C 3.98196 1.48588 1.78092
49 1 C 5.72788 4.5094 0.945818
50 1 C 9.6528 4.94281 8.3819
51 1 C 5.87576 6.51867 0.767314
52 1 C 3.53452 6.15607 0.528167
53 1 C 0.583098 3.21447 4.37485
54 1 C 4.45388 8.73558 6.37119
55 1 C 8.11477 0.751463 1.19767
56 1 C 7.48476 -0.006855 5.9765
57 1 C 2.47607 9.16543 1.62644
58 1 C 9.96749 6.96866 6.23908
59 1 C 4.31458 3.47108 9.49887
60 1 C 5.68762 6.5741 9.97223
61 1 C 8.92108 3.48634 5.77607
62 1 C 2.04713 6.27183 1.52904
63 1 C 9.97763 6.2452 4.08515
64 1 C 0.284572 1.73739 8.19807
65 1 C 0.444251 9.8891 6.60049
66 1 C 1.42929 6.05991 3.05984
67 1 C 10.0016 1.25194 0.312919
68 1 C 0.234482 0.000975 7.93303
69 1 C 5.5426 0.025938 6.43697
70 1 C 8.32347 2.26665 4.93705
71 1 C 4.64562 2.4869 2.92186
72 1 C 0.020636 9.55407 0.003358
73 1 C 4.72959 3.06765 4.57229
74 1 C 3.33542 7.49464 9.17993
75 1 C 6.69462 7.78208 1.70889
76 1 C 7.62823 3.02763 7.67985
77 1 C 8.25788 9.72246 5.45985
78 1 C 5.17499 4.90445 7.80956
79 1 C 2.82658 7.14677 7.25608
80 1 C 7.13869 4.04037 1.66501
81 1 C 8.15885 0.789272 4.28763
82 1 C 0.0597 3.03033 0.277551
83 1 C 3.00665 8.60801 8.00581
84 1 C 3.54139 6.19381 2.18241
85 1 C 0.30858 6.51963 0.258107
86 1 C -0.002035 6.62811 5.61176
87 1 C 6.2107 3.52956 7.00642
88 1 C 7.43369 9.4339 7.05568
89 1 C 1.69251 8.5502 3.02429
90 1 C 8.67976 4.666 1.62211
91 1 C 9.93402 2.79717 2.80306
92 1 C 9.56794 5.32843 9.9936
93 1 C 9.79872 3.89698 7.1178
94 1 C 3.31776 2.32709 4.9968
95 1 C 9.96477 2.26505 5.17408
96 1 C 5.10719 5.67233 1.97596
97 1 C 1.45525 7.6445 9.74774
98 1 C 9.97114 7.97894 2.31625
99 1 C 2.98304 7.75481 2.32256
100 1 C 0.882146 5.12311 1.26241
101 1 C 4.71103 3.63405 6.32734
102 1 C 5.77911 4.92769 9.91603
103 1 C 8.80593 9.6802 7.93758
104 1 C 9.8278 9.96886 5.01429
105 1 C 6.06302 8.20579 9.74609
106 1 C 2.73807 3.59624 9.96969
107 1 C 7.41471 8.3079 5.8498
108 1 C 7.84032 6.76012 0.400709
109 1 C 0.399484 -0.018875 6.26685
110 1 C 9.978 6.53177 8.94204
111 1 C 5.87596 8.78977 5.53564
112 1 C 5.98037 7.17842 4.17686
113 1 C 3.2806 6.66991 5.58208
114 1 C 2.86963 7.95842 0.577018
115 1 C 9.97016 4.4673 2.63114
116 1 C 4.34005 6.08789 7.00845
117 1 C 1.36567 4.09674 9.02809
118 1 C 8.28715 8.1153 7.86202
119 1 C 0.293894 5.55056 6.82496
120 1 C 7.63506 4.20607 6.52082
121 1 C 0.859711 9.97236 3.13892
122 1 C 7.81783 8.61197 3.53019
123 1 C 1.8617 2.38594 7.12218
124 1 C 1.9361 9.6021 7.19375
125 1 C 1.60954 2.83455 3.15323
126 1 C 2.47072 3.73964 7.85558
127 1 C 3.60893 0.060436 3.90225
128 1 C 8.03904 4.55785 8.29141
129 1 C 5.5434 9.96853 8.91176
130 1 C -0.018838 5.39015 2.60877
131 1 C 9.91725 2.53011 8.03455
132 1 C 6.67119 3.01498 0.00276
133 1 C 1.34377 7.82749 1.61234
134 1 C 7.97724 5.46874 5.51076
135 1 C 8.89925 4.99985 4.21607
136 1 C 3.42975 2.15759 7.59894
137 1 C 1.20918 1.34119 5.78993
138 1 C 4.91456 7.80415 7.64431
139 1 C 0.01714 6.86168 1.84369
140 1 C 5.85912 2.03209 3.96199
141 1 C -0.019885 8.7113 4.95886
142 1 C 3.84349 0.891061 8.57076
143 1 C 3.91495 3.86588 1.5005
144 1 C 1.66302 4.19134 0.00053
145 1 C 9.01712 3.52301 9.12279
146 1 C 2.28998 0.001665 4.89198
147 1 C 3.04526 4.75328 4.56877
148 1 C 2.61013 9.56467 4.83302
149 1 C 8.77044 2.18914 6.83529
150 1 C 2.76036 5.33177 8.18998
151 1 C 5.34634 0.010693 -3e-06
152 1 C 7.86455 2.50016 1.02176
153 1 C 6.99822 0 0.003069
154 1 C 6.17909 1.26041 8.34657
155 1 C 6.0136 1.58265 2.02175
156 1 C 3.44913 4.26395 3.04805
157 1 C 6.76959 5.36071 -0.010272
158 1 C 7.41718 1.04923 2.64322
159 1 C 8.84218 0.253416 2.91047
160 1 C 1.43558 4.97201 4.88254
161 1 C 9.30565 0.75152 9.72919
162 1 C 2.52354 9.9797 3.0611
163 1 C 8.39574 7.56783 2.04749
164 1 C 1.85128 4.47415 3.3661
165 1 C 9.96916 9.01969 6.90675
166 1 C 4.57174 1.99349 6.04064
167 1 C 4.67202 -2e-06 1.51384
168 1 C 8.56237 1.98355 3.27266
169 1 C 4.3246 8.3215 3.09883
170 1 C 4.42623 8.62008 4.72639
171 1 C 1.92612 5.82456 6.85275
172 1 C 4.08178 -0.0006 7.2037
173 1 C 2.3006 2.88963 1.07544
174 1 C 7.19206 9.96966 8.97834
175 1 C 1.38169 8.77055 5.84046
176 1 C 5.85709 5.69894 6.49008
177 1 C 8.42123 6.55155 8.39167
178 1 C 1.555 7.13504 5.82094
179 1 C 3.29648 0.065019 0.299653
180 1 C 4.39562 4.70495 -0.000109
181 1 C -0.001 4.68406 -0.001559
182 1 C 6.37058 3.5802 3.63575
183 1 C 2.88401 0.005451 1.93385
184 1 C 6.47743 5.22186 2.98197
185 1 C 9.31763 7.76964 3.81681
186 1 C 5.25203 9.97162 2.94443
187 1 C 4.94751 2.02491 -0.00124
188 1 C 4.02377 9.87906 8.2751
189 1 C 0.005058 8.04442 6.46583
190 1 C -0.000356 4.34477 5.73772
191 1 C 2.65278 6.30763 4.08874
192 1 C -4.1e-05 7.41732 9.00406
193 1 C 6.09297 4.05814 5.44308
194 1 C 3.20037 9.66794 0.001758
195 1 C 4.51501 1.2819 4.55402
196 1 C 8.06801 5.66153 2.94514
197 1 C 3.12773 1.7109 0.000736
198 1 C 2.80191 1.35486 6.22515
199 1 C 8.4299 3.59865 2.83912
200 1 C 3.5986 4.88885 6.15055
201 1 C 0.007042 1.68895 4.61613
202 1 C 1.45478 7.43589 4.20411
203 1 C 9.64365 3.51594 4.15254
204 1 C 5.1645 7.25588 6.11049
205 1 C 8.93629 -0.044189 0.033059
206 1 C 2.08153 6.66622 -0.072715
207 1 C 3.46463 3.34311 0.00141
208 1 C -0.002006 2.47239 3.02002
209 1 C 3.98679 5.0995 9.90326
210 1 C 8.58874 1.44258 8.40976
211 1 C -0.014572 8.06348 0.704208
212 1 C 4.2926 5.91216 3.60189
213 1 C 3.02462 7.94321 4.05955
214 1 C 2.42992 4.63143 1.56946
215 1 C 5.03123 0.600333 3.02165
216 1 C 7.1379 2.63428 2.52311
217 1 C 6.66926 1.18487 6.77293
218 1 C 4.86818 1.8197 9.49794
219 1 C 3.32086 1.64996 3.47332
220 1 C 6.78802 -0.003662 3.75159
221 1 C 5.03772 5.94983 5.06624
222 1 C 6.14229 0.66757 9.96764
223 1 C 6.27401 -0.034041 2.09767
224 1 C -0.00484 4.74127 4.1236
225 1 C 7.34398 0.000339 8.07799
226 1 C 5.18064 4.62045 4.09816
227 1 C 7.28507 7.09811 3.1704
228 1 C 0.739358 2.89247 6.00968
229 1 C 8.79902 6.82989 5.08041
230 1 C 9.09719 9.30239 0.121807
231 1 C 3.9244 9.96943 3.92454
232 1 C 7.16646 5.69009 1.55877
233 1 C 7.0481 2.62903 5.94932
234 1 C 6.54834 5.47322 4.61276
235 1 C 7.76382 1.43181 9.84032
236 1 C 0.015389 7.93478 3.50396
237 1 C 2.35101 1.63464 2.1455
238 1 C 3.08802 3.29124 6.39143
239 1 C 1.01482 9.98223 4.77758
240 1 C 8.31944 6.84415 6.76974
241 1 C 0.356989 5.39535 9.1654
242 1 C 9.52594 1.41664 1.90694
243 1 C 1.53983 8.96487 0.263062
244 1 C 0.765329 9.40313 9.97386
245 1 C 4.78336 7.53978 0.069794
246 1 C 8.8364 -0.011198 6.92044
247 1 C 1.76628 2.33837 9.52706
248 1 C 4.50654 6.29947 8.65293
249 1 C 5.17717 2.86103 1.39977
250 1 C 5.02907 7.88567 1.66898