ITEM: TIMESTEP
252850
ITEM: NUMBER OF ATOMS
4849
ITEM: BOX BOUNDS pp pp pp
1.7225268964062437e+00 6.6488873103591203e+01
-9.2348200315209183e-02 2.1506974780313897e+01
-1.0035986020953835e-01 2.1514986440207476e+01
ITEM: ATOMS id type element xu yu zu
1 1 C 56.3855 1.84393 -18.1215
2 1 C 71.655 16.3885 14.2613
3 1 C 53.1091 9.86259 -17.5344
4 1 C 49.4858 25.2977 17.5159
5 1 C 54.6406 -19.3313 13.93
6 1 C 55.6321 14.52 19.3393
7 1 C 59.0894 8.98532 15.9761
8 1 C 48.5433 22.3745 -0.54488
9 1 C 49.9717 8.04557 2.2269
10 1 C 42.8237 10.0287 4.99175
11 1 C 67.2276 0.447477 12.0069
12 1 C 49.6827 -9.24712 0.397309
13 1 C 57.6023 6.70156 22.8392
14 1 C 52.6624 6.5753 19.6661
15 1 C 69.0355 30.85 11.5
16 1 C 46.6782 -10.4944 30.9722
17 1 C 53.4349 27.9219 0.408419
18 1 C 52.6423 1.6924 -16.6704
19 1 C 40.3127 19.2877 3.39029
20 1 C 53.5093 -15.8741 7.87483
21 1 C 70.953 15.3849 5.79724
22 1 C 54.1099 4.86353 -5.61789
23 1 C 62.7651 11.0465 2.83129
24 1 C 47.7991 23.8695 22.6036
25 1 C 66.7144 15.5819 -5.80429
26 1 C 43.5666 14.2771 25.5535
27 1 C 47.3973 -0.945412 10.0647
28 1 C 61.6482 4.89386 6.82778
29 1 C 46.6758 19.7551 32.7126
30 1 C 50.6356 -4.00369 19.082
31 1 C 40.1941 4.94804 14.2064
32 1 C 52.3763 -9.56064 6.103
33 1 C 51.1431 -1.1735 1.62475
34 1 C 55.7049 10.4292 4.46772
35 1 C 44.5254 12.015 -0.598794
36 1 C 65.5698 4.04184 0.92185
37 1 C 45.885 13.3402 25.5415
38 1 C 48.6907 19.8489 27.3227
39 1 C 65.3089 18.5382 10.7995
40 1 C 39.2991 13.5215 16.5363
41 1 C 54.7168 12.341 12.9702
42 1 C 42.7219 24.879 15.8257
43 1 C 60.2792 10.4513 32.4015
44 1 C 54.6165 -7.73807 0.773898
45 1 C 60.5032 -4.52866 4.77634
46 1 C 59.1551 6.53761 3.05731
47 1 C 43.958 5.35255 6.02115
48 1 C 48.2587 20.6673 15.9901
49 1 C 60.5636 11.7593 6.62719
50 1 C 54.3327 30.0821 -2.6435
51 1 C 54.1951 4.20876 11.731
52 1 C 50.6219 7.87112 11.3836
53 1 C 71.7024 0.126413 -12.9103
54 1 C 51.9098 -4.1657 -9.29748
55 1 C 45.3927 -0.12864 19.2631
56 1 C 49.8146 -2.26339 19.2994
57 1 C 58.6389 0.128789 21.2802
58 1 C 64.6149 3.51143 23.6168
59 1 C 47.2497 17.0181 27.2849
60 1 C 64.7197 -0.050227 24.3721
61 1 C 54.9249 12.3214 6.20933
62 1 C 59.8594 6.68456 5.89521
63 1 C 65.6292 0.95655 38.8013
64 1 C 55.5782 -7.7637 4.80027
65 1 C 50.2751 -7.16427 -14.2961
66 1 C 52.8047 3.60313 11.6481
67 1 C 71.824 21.8166 15.8347
68 1 C 54.4122 6.67327 23.8128
69 1 C 68.1229 19.9399 27.0718
70 1 C 64.0395 28.8259 10.3113
71 1 C 43.9232 -22.8242 -1.93658
72 1 C 67.9418 4.51417 22.536
73 1 C 64.1272 -2.80627 -11.6094
74 1 C 60.4783 26.6703 14.0863
75 1 C 68.8448 35.7102 7.0324
76 1 C 48.897 19.6393 13.2648
77 1 C 51.0651 10.39 22.2216
78 1 C 46.6241 22.9111 13.4648
79 1 C 46.9913 14.3112 22.3443
80 1 C 58.8867 0.157547 7.96345
81 1 C 40.6742 4.51881 3.71881
82 1 C 58.2471 3.36163 13.7544
83 1 C 59.704 -0.560421 -10.5338
84 1 C 46.6966 -3.80274 20.4328
85 1 C 45.9358 -10.1992 12.4546
86 1 C 44.1578 -1.95839 -3.29859
87 1 C 61.2232 16.131 -0.186933
88 1 C 60.7597 12.494 22.3562
89 1 C 53.878 -8.73106 3.10532
90 1 C 60.0119 10.871 4.22109
91 1 C 71.0879 13.377 8.29719
92 1 C 43.8701 3.69114 6.66213
93 1 C 47.2203 12.8815 26.0954
94 1 C 54.672 -25.6816 31.8194
95 1 C 45.8426 -5.73961 10.5572
96 1 C 39.9389 -11.7921 13.0421
97 1 C 50.4362 1.28631 19.7125
98 1 C 63.8722 14.024 30.6184
99 1 C 67.5339 -30.981 12.5872
100 1 C 59.471 1.05384 -26.3388
101 1 C 43.7032 -6.71357 10.0024
102 1 C 64.5187 13.1511 11.1866
103 1 C 45.1628 14.0348 17.4391
104 1 C 57.5205 11.653 -19.9428
105 1 C 69.0574 -7.46832 -4.99083
106 1 C 57.1815 10.4778 5.39506
107 1 C 53.6904 1.09072 13.4768
108 1 C 67.1878 -1.33074 -4.30176
109 1 C 44.5785 16.094 17.1164
110 1 C 47.8691 -4.73431 13.1445
111 1 C 70.0968 -3.66757 17.5491
112 1 C 43.1601 7.89278 1.14072
113 1 C 50.2157 16.2959 13.4209
114 1 C 60.2995 -12.6503 21.2105
115 1 C 57.511 -12.8489 13.2859
116 1 C 44.2318 18.0779 20.4048
117 1 C 64.1364 26.3359 11.4479
118 1 C 67.2327 -0.832911 -5.65421
119 1 C 50.4029 -0.963958 28.5652
120 1 C 45.0175 32.2089 -8.28146
121 1 C 64.0872 7.01659 20.9525
122 1 C 62.3124 6.73276 -9.32159
123 1 C 51.3491 6.89497 -0.0444945
124 1 C 59.5282 14.0499 5.60586
125 1 C 62.4919 8.59105 7.83457
126 1 C 51.1887 8.75943 -13.6231
127 1 C 60.8128 -4.49324 19.2778
128 1 C 55.2923 9.20091 3.93408
129 1 C 56.5255 6.39884 10.6796
130 1 C 63.91 6.10628 -5.91644
131 1 C 41.3002 11.3292 14.4808
132 1 C 43.8403 7.92383 -5.07461
133 1 C 60.4034 -3.06706 -2.92045
134 1 C 50.5137 12.0774 24.5246
135 1 C 60.9542 11.4469 10.2035
136 1 C 65.9359 33.0319 -2.64394
137 1 C 61.8689 1.20955 -1.57479
138 1 C 59.6274 -3.52818 -19.194
139 1 C 51.8845 17.639 5.49145
140 1 C 47.4871 14.1748 13.5476
141 1 C 69.3266 13.1867 22.7245
142 1 C 51.1529 6.71141 -10.7395
143 1 C 71.7383 25.2647 16.0482
144 1 C 62.1733 18.4309 17.9474
145 1 C 58.4861 7.65679 20.4118
146 1 C 53.338 -15.9145 3.38699
147 1 C 40.9638 19.4487 -2.6849
148 1 C 56.5688 12.6755 22.9262
149 1 C 42.7865 -0.0922634 7.20728
150 1 C 49.8419 20.0132 10.4195
151 1 C 43.8277 38.3425 3.43608
152 1 C 57.658 7.98378 4.60568
153 1 C 68.6021 9.52808 -0.938749
154 1 C 54.339 15.8984 1.99459
155 1 C 59.9749 -3.81909 22.6613
156 1 C 59.1825 16.5343 26.036
157 1 C 45.1431 23.6515 25.2133
158 1 C 46.18 17.767 14.2204
159 1 C 53.3017 -6.54936 11.248
160 1 C 58.0862 9.0119 3.65849
161 1 C 46.216 19.0894 16.5209
162 1 C 68.8143 5.50728 7.51292
163 1 C 61.5452 5.9875 9.84353
164 1 C 69.9496 21.8205 14.1278
165 1 C 41.2945 30.2563 15.5566
166 1 C 70.6697 6.59539 29.1137
167 1 C 52.8823 -6.9195 9.01439
168 1 C 44.8062 10.6239 10.6592
169 1 C 39.267 1.76223 17.7841
170 1 C 42.9542 10.5884 6.19505
171 1 C 43.3437 4.24873 -6.80073
172 1 C 63.7915 0.403565 8.96912
173 1 C 40.1665 -2.79298 11.7969
174 1 C 67.6129 13.6731 6.57631
175 1 C 51.9951 -3.87355 -4.78732
176 1 C 60.0532 9.85227 23.6577
177 1 C 45.0135 12.7719 4.99207
178 1 C 49.5732 -21.5845 29.1465
179 1 C 55.3057 13.1589 3.49766
180 1 C 67.5783 -1.49603 -0.58201
181 1 C 52.7261 -3.77093 18.9147
182 1 C 40.2094 -9.33528 7.82152
183 1 C 69.6676 27.2322 9.11722
184 1 C 59.5942 20.3226 17.4379
185 1 C 52.5383 0.696744 -13.7635
186 1 C 52.0384 26.0412 17.4363
187 1 C 70.2699 1.87386 21.0949
188 1 C 51.659 18.6187 30.1925
189 1 C 45.6776 22.5317 9.86901
190 1 C 57.4109 -7.93645 9.44813
191 1 C 61.8514 10.9348 -0.226391
192 1 C 65.0084 18.8124 -3.13426
193 1 C 45.6095 -16.2952 9.65051
194 1 C 64.7441 5.54885 1.42167
195 1 C 55.1126 11.8447 8.83557
196 1 C 54.8881 -25.1628 -0.181816
197 1 C 39.0267 0.216993 1.64085
198 1 C 41.7506 2.80664 -10.0478
199 1 C 48.5723 -7.9069 -6.25319
200 1 C 47.7754 -11.2264 3.76115
201 1 C 43.9099 -6.80042 22.6153
202 1 C 62.6378 3.09072 0.83132
203 1 C 46.0522 25.1748 -5.60561
204 1 C 54.4916 -7.53468 -24.924
205 1 C 56.3701 8.66933 24.3525
206 1 C 57.2526 5.16112 3.54562
207 1 C 62.7169 12.5594 -9.05768
208 1 C 61.6368 -1.34106 -8.74457
209 1 C 44.2548 30.3761 19.5759
210 1 C 54.1872 -6.21372 24.8624
211 1 C 57.134 9.91092 13.6518
212 1 C 60.4727 -13.2849 8.69157
213 1 C 55.6193 -7.1577 -6.32711
214 1 C 62.7556 8.93878 21.3358
215 1 C 70.6929 11.7625 2.79309
216 1 C 63.2547 -3.91701 1.14451
217 1 C 45.5402 -3.01431 9.21116
218 1 C 45.819 -1.79294 27.6493
219 1 C 38.8729 14.8132 1.30164
220 1 C 56.797 -12.2524 -22.8706
221 1 C 47.2621 9.62037 -7.93067
222 1 C 60.9111 33.6503 13.3238
223 1 C 39.9526 4.62301 0.885656
224 1 C 66.4462 1.02603 21.1261
225 1 C 48.841 -17.6749 5.83435
226 1 C 65.2156 6.63833 15.9992
227 1 C 58.1356 2.57065 31.4286
228 1 C 64.4769 -3.96881 4.01677
229 1 C 63.7621 23.4475 -0.118114
230 1 C 59.7512 -12.2678 13.539
231 1 C 55.6677 10.7651 9.3311
232 1 C 65.7989 15.5966 3.36028
233 1 C 64.96 -3.07126 7.86063
234 1 C 47.7615 22.7395 30.2866
235 1 C 60.9728 13.5909 34.6082
236 1 C 58.5062 18.9642 -2.08399
237 1 C 56.3804 7.18579 -13.7432
238 1 C 53.4759 19.2341 10.2803
239 1 C 40.3257 32.3114 3.53914
240 1 C 63.1557 15.5027 22.7356
241 1 C 66.9672 33.8301 21.5617
242 1 C 63.0068 -6.22443 15.6772
243 1 C 46.2687 27.0003 27.7958
244 1 C 52.0171 17.3748 15.6355
245 1 C 41.3986 22.3794 9.16288
246 1 C 49.5194 -1.06786 16.3698
247 1 C 52.8867 -2.74757 2.51555
248 1 C 43.7551 2.36217 16.8906
249 1 C 63.7385 -2.23158 7.63361
250 1 C 50.3552 20.6236 3.67962
251 1 C 48.4707 -17.3572 15.2373
252 1 C 42.4222 7.57992 34.9544
253 1 C 60.3493 -7.77542 9.18039
254 1 C 69.2228 14.5273 9.32591
255 1 C 40.7579 3.87426 26.6155
256 1 C 43.8351 24.7472 34.3668
257 1 C 55.5162 0.721084 3.86412
258 1 C 46.8136 7.484 -2.98497
259 1 C 60.6294 4.47812 1.71877
260 1 C 49.1254 8.00112 17.0807
261 1 C 40.4901 9.92501 -1.99114
262 1 C 65.3772 18.7993 21.3372
263 1 C 45.1743 -9.1399 11.3973
264 1 C 60.168 17.6831 10.9268
265 1 C 40.1282 7.41827 5.13137
266 1 C 66.8595 14.5666 12.8509
267 1 C 57.7349 8.83688 9.24301
268 1 C 47.8024 -1.6984 26.28
269 1 C 66.1452 20.9152 30.4484
270 1 C 44.4757 1.64019 19.472
271 1 C 53.0813 26.9605 -2.33145
272 1 C 68.7743 12.1021 26.3174
273 1 C 52.9955 15.1551 12.8442
274 1 C 54.018 2.30315 22.4608
275 1 C 67.6278 2.79257 -6.77904
276 1 C 42.2 2.30241 -0.271756
277 1 C 47.3933 22.2626 -1.20503
278 1 C 50.4927 25.5628 2.44396
279 1 C 42.32 0.366543 11.5773
280 1 C 56.2468 10.0546 17.971
281 1 C 51.9292 36.3489 8.01629
282 1 C 50.9645 1.27338 16.1345
283 1 C 48.7843 -4.8426 16.8534
284 1 C 55.0081 4.74993 6.28148
285 1 C 68.2155 7.88941 28.5766
286 1 C 44.4288 4.3665 22.1066
287 1 C 65.9851 7.99754 6.66592
288 1 C 49.9788 11.5172 -6.62769
289 1 C 64.9207 7.2034 -24.7263
290 1 C 65.5052 26.3251 20.6746
291 1 C 50.0747 -0.027242 14.1768
292 1 C 66.4219 -3.69848 10.2896
293 1 C 55.7362 -0.466694 6.80117
294 1 C 68.3006 15.5727 11.4338
295 1 C 48.9009 5.41812 24.1881
296 1 C 40.9038 27.2605 -2.0795
297 1 C 48.7884 -4.65238 5.91823
298 1 C 49.9115 28.4035 20.6364
299 1 C 40.1766 10.1364 31.1576
300 1 C 43.4676 -9.55233 0.713286
301 1 C 58.1844 -15.2898 12.8299
302 1 C 40.6695 -8.16197 9.99769
303 1 C 60.8835 -12.2312 11.2987
304 1 C 44.4436 14.1583 29.0679
305 1 C 54.8274 9.14746 11.7039
306 1 C 66.1589 -23.2603 -0.236715
307 1 C 66.008 19.2141 14.7138
308 1 C 41.812 26.1744 -1.25283
309 1 C 40.8745 25.0112 2.71854
310 1 C 55.1037 29.7252 26.5075
311 1 C 67.2359 8.45063 2.24257
312 1 C 51.0842 5.55255 17.2123
313 1 C 40.4771 21.6841 14.1272
314 1 C 55.5094 9.01481 1.16284
315 1 C 48.8296 8.96296 27.2546
316 1 C 68.2106 5.81573 10.0647
317 1 C 61.4423 23.8728 34.4669
318 1 C 50.8669 -6.0784 21.8501
319 1 C 48.9778 11.9668 -11.8716
320 1 C 67.6084 11.187 23.9127
321 1 C 57.7038 12.0867 18.8283
322 1 C 54.5431 31.7956 21.1557
323 1 C 43.4661 37.7563 1.25091
324 1 C 41.0577 12.5793 11.4404
325 1 C 65.6193 -8.91209 -1.84993
326 1 C 48.9142 7.06508 18.1905
327 1 C 61.5356 -2.68097 -8.76839
328 1 C 69.8879 7.00557 9.67534
329 1 C 40.888 8.05669 3.05364
330 1 C 40.0212 17.3518 9.28933
331 1 C 42.004 14.7963 11.7398
332 1 C 57.0485 -2.7335 28.3876
333 1 C 68.2737 21.9168 10.7486
334 1 C 51.2101 -0.80509 10.5102
335 1 C 41.6078 20.6625 -3.14827
336 1 C 44.7518 25.31 11.6763
337 1 C 67.5196 18.9663 -3.99923
338 1 C 65.6882 17.6404 1.93839
339 1 C 48.1687 0.528733 -4.11378
340 1 C 39.6355 10.0859 16.5971
341 1 C 54.9719 23.2961 15.039
342 1 C 52.2507 0.614369 36.278
343 1 C 50.6886 39.2177 34.6881
344 1 C 57.6051 1.78895 4.32329
345 1 C 67.9963 16.2964 14.526
346 1 C 65.1513 3.01617 -4.77164
347 1 C 45.6053 9.50264 -1.78739
348 1 C 51.1349 39.9117 14.4759
349 1 C 40.03 22.5608 11.34
350 1 C 62.2626 4.78039 20.1631
351 1 C 53.0975 35.9473 3.64617
352 1 C 51.0924 4.56286 14.1674
353 1 C 39.8044 4.44996 11.2292
354 1 C 47.7234 20.1347 30.2039
355 1 C 52.9625 15.776 -4.88099
356 1 C 48.2235 7.48812 32.5806
357 1 C 51.7521 16.6692 19.4094
358 1 C 69.2961 15.3432 -2.71689
359 1 C 59.9915 -17.9063 24.4805
360 1 C 50.7506 23.3656 2.07357
361 1 C 61.7679 12.1631 7.52725
362 1 C 61.5985 29.5586 1.35796
363 1 C 46.6073 20.8522 -3.33225
364 1 C 59.5618 22.2446 10.4847
365 1 C 45.6658 5.50262 4.13622
366 1 C 39.1404 9.27932 -0.435386
367 1 C 44.5064 19.5214 -0.844607
368 1 C 63.0676 18.4271 25.3995
369 1 C 64.3222 31.1862 -2.72818
370 1 C 65.3679 34.5039 2.38198
371 1 C 56.7851 -1.05706 -8.41423
372 1 C 39.3595 25.3572 19.6762
373 1 C 64.6792 15.1287 1.48386
374 1 C 46.4645 12.6811 -15.1797
375 1 C 42.8236 17.1321 -3.11629
376 1 C 48.4918 14.521 16.666
377 1 C 56.8736 7.36009 -6.26924
378 1 C 68.5002 -13.4903 -17.0045
379 1 C 45.1732 14.3826 20.5739
380 1 C 55.0484 9.22441 15.7242
381 1 C 54.4077 14.2866 -5.5361
382 1 C 43.4321 13.1719 15.3763
383 1 C 45.8701 -14.8875 6.54292
384 1 C 55.7181 10.3574 13.4747
385 1 C 50.3711 -5.37329 7.56435
386 1 C 52.5404 14.2751 1.47123
387 1 C 58.7032 -15.4058 6.60946
388 1 C 68.9315 16.9572 -12.2117
389 1 C 61.8529 24.2134 -12.5141
390 1 C 45.3728 14.8615 21.7848
391 1 C 64.7588 23.2824 4.03118
392 1 C 57.8588 -23.7489 11.7643
393 1 C 58.6194 18.7648 20.9919
394 1 C 59.1306 -10.96 -7.18341
395 1 C 61.391 25.8274 20.9492
396 1 C 61.5655 -8.01686 29.3157
397 1 C 53.9472 13.9856 10.9643
398 1 C 58.6208 4.93119 9.47006
399 1 C 40.1013 15.3815 4.01491
400 1 C 52.0812 12.1741 26.4529
401 1 C 44.2966 20.0083 -15.8299
402 1 C 52.5959 -7.84053 -1.02753
403 1 C 58.774 -2.81404 9.81367
404 1 C 55.8837 8.33404 7.35702
405 1 C 56.5596 18.1644 7.92721
406 1 C 41.4609 19.5385 34.0704
407 1 C 53.2537 7.46379 14.5757
408 1 C 46.0355 -11.6811 -0.689609
409 1 C 59.5001 3.10971 26.5122
410 1 C 46.6474 19.1672 -7.15832
411 1 C 43.2334 10.6679 -5.10905
412 1 C 61.4204 15.3282 15.7224
413 1 C 47.6038 6.09621 17.9915
414 1 C 54.9457 -6.93612 5.54629
415 1 C 42.6732 14.199 21.3598
416 1 C 52.656 10.9816 14.9214
417 1 C 51.135 30.4994 19.1738
418 1 C 60.049 -10.3186 -4.87579
419 1 C 57.2535 16.2145 -4.93456
420 1 C 46.761 13.3864 7.8818
421 1 C 52.9439 -1.33351 15.4055
422 1 C 60.7708 -1.49829 20.7118
423 1 C 42.3188 16.7153 10.5531
424 1 C 66.8551 14.2522 5.6616
425 1 C 47.5302 -15.5593 24.0221
426 1 C 49.3739 8.66852 1.18948
427 1 C 49.4417 4.3966 21.8561
428 1 C 53.5673 3.58214 26.9101
429 1 C 44.0527 5.3569 -0.248233
430 1 C 48.9916 -1.06458 1.91127
431 1 C 43.2053 3.22305 8.92653
432 1 C 40.8829 11.4727 17.3541
433 1 C 68.3846 4.19459 29.3339
434 1 C 70.3123 7.67292 8.54765
435 1 C 54.3656 -8.17875 21.2144
436 1 C 52.016 28.336 -4.85303
437 1 C 42.0619 11.5988 11.601
438 1 C 62.2888 14.3685 20.0203
439 1 C 42.8397 11.1506 19.4375
440 1 C 50.0649 24.8367 3.63679
441 1 C 41.7017 4.05139 7.4471
442 1 C 41.6079 0.498375 16.6274
443 1 C 69.9807 25.591 -0.212918
444 1 C 42.8744 7.06071 20.0594
445 1 C 53.4025 -0.100789 -11.7782
446 1 C 55.6016 19.3623 -12.8811
447 1 C 51.6991 24.1113 8.61317
448 1 C 50.6399 8.09237 12.7778
449 1 C 58.535 -2.49663 -17.2068
450 1 C 51.0941 27.4114 33.3564
451 1 C 44.4584 5.97417 24.5561
452 1 C 45.9212 31.0618 5.49436
453 1 C 54.4473 25.714 19.2896
454 1 C 42.9906 9.35136 7.01802
455 1 C 50.307 1.86852 0.810452
456 1 C 41.7413 8.33722 8.93501
457 1 C 43.9125 -15.2115 4.55441
458 1 C 52.4375 16.7048 -11.9113
459 1 C 46.3422 20.3861 13.9382
460 1 C 40.2801 12.1962 0.608063
461 1 C 51.382 16.8018 -14.7547
462 1 C 58.3654 7.33366 0.287682
463 1 C 64.5293 14.9459 7.20196
464 1 C 57.1742 14.766 16.1623
465 1 C 51.4761 11.6842 36.9044
466 1 C 55.2088 16.3028 9.80196
467 1 C 62.1701 6.23834 30.4109
468 1 C 40.4134 -7.02483 17.9487
469 1 C 48.6268 15.1533 -2.35593
470 1 C 66.4944 23.5563 6.91878
471 1 C 59.6452 -14.1004 2.08976
472 1 C 54.8725 -0.881874 7.89597
473 1 C 48.0717 8.81782 -7.13814
474 1 C 58.7425 26.7093 12.3308
475 1 C 58.476 -8.92434 2.42566
476 1 C 64.9623 -15.3892 8.35109
477 1 C 50.1319 -12.1138 5.97528
478 1 C 40.7785 18.8097 -4.41675
479 1 C 61.4708 -0.450492 -7.626
480 1 C 58.1139 7.97501 18.3385
481 1 C 53.6005 6.71044 27.4501
482 1 C 49.0403 -3.35951 3.23982
483 1 C 61.8148 24.0201 6.10382
484 1 C 69.6991 0.706005 17.1991
485 1 C 49.0592 32.2455 -3.99626
486 1 C 65.16 -31.0984 12.926
487 1 C 48.199 6.21902 10.4293
488 1 C 49.1373 15.0879 2.61617
489 1 C 66.8124 24.0121 20.6212
490 1 C 57.8803 15.5685 22.5096
491 1 C 66.3441 16.3056 19.9757
492 1 C 51.5924 -2.41925 -4.71422
493 1 C 52.523 -4.04087 3.94891
494 1 C 44.373 27.5687 9.46548
495 1 C 47.6326 15.4683 7.40769
496 1 C 59.1233 20.2479 5.52026
497 1 C 53.8591 -2.00882 29.5306
498 1 C 59.4799 -2.43014 3.35282
499 1 C 60.3788 -10.2377 -7.18144
500 1 C 53.9355 8.92645 3.32015
501 1 C 47.8853 3.07783 19.3008
502 1 C 64.0396 0.500108 -7.23712
503 1 C 44.4711 2.25288 6.45801
504 1 C 49.2555 9.20722 -6.22172
505 1 C 45.4821 33.3383 5.95968
506 1 C 57.2008 23.3688 19.6544
507 1 C 61.3734 24.16 11.5245
508 1 C 70.9983 -2.47908 -1.43257
509 1 C 48.1492 30.5921 3.91462
510 1 C 65.8869 -6.82985 10.15
511 1 C 56.8434 -13.7245 -1.30934
512 1 C 63.7509 -5.11046 10.3244
513 1 C 52.8169 37.9355 -6.5477
514 1 C 56.0393 0.867425 6.29162
515 1 C 50.4939 6.44115 15.2311
516 1 C 53.2331 12.9277 23.4978
517 1 C 64.3612 -4.52083 26.9532
518 1 C 45.709 13.1802 36.3008
519 1 C 53.8128 3.77552 0.124148
520 1 C 52.3413 -7.8454 13.5173
521 1 C 63.4511 22.6386 18.8749
522 1 C 64.5504 9.95419 8.85766
523 1 C 44.9612 23.5437 0.892214
524 1 C 50.6975 11.0266 7.97818
525 1 C 51.3717 -4.51577 22.3185
526 1 C 59.5325 13.698 20.9531
527 1 C 43.3352 22.0554 1.63396
528 1 C 62.5682 2.89817 13.4657
529 1 C 62.8487 0.00193935 14.8315
530 1 C 41.0909 13.5578 12.6329
531 1 C 52.2451 4.47231 7.39414
532 1 C 51.6425 9.28446 21.1155
533 1 C 41.6507 6.05094 5.73424
534 1 C 66.1697 18.6204 6.6972
535 1 C 70.3162 21.478 0.869855
536 1 C 66.6569 11.5558 14.361
537 1 C 60.1069 5.84209 16.6448
538 1 C 63.2559 -18.3964 6.23128
539 1 C 57.1149 13.9229 5.01004
540 1 C 47.8777 15.4429 -9.42498
541 1 C 47.6242 17.4031 16.6339
542 1 C 57.0192 19.8215 21.4568
543 1 C 48.2276 -0.274324 29.6093
544 1 C 50.9607 12.7328 -17.5347
545 1 C 43.8429 -6.93647 -1.13687
546 1 C 59.6809 2.78554 9.44848
547 1 C 40.4882 23.3463 7.44467
548 1 C 54.7845 16.658 7.53445
549 1 C 45.4773 3.39584 -3.45129
550 1 C 45.4501 -1.15526 2.12773
551 1 C 59.7782 -9.35508 11.4977
552 1 C 46.8979 23.4029 -4.19857
553 1 C 62.3289 -15.0195 3.49302
554 1 C 50.0465 14.1186 2.88204
555 1 C 53.203 -5.25234 13.4409
556 1 C 43.2327 11.9605 33.929
557 1 C 60.0644 -2.98369 7.49855
558 1 C 56.9491 7.58337 35.7154
559 1 C 46.3542 8.01775 -4.04828
560 1 C 54.6017 18.6064 -20.424
561 1 C 67.787 -10.773 12.7964
562 1 C 69.9946 4.58671 15.3505
563 1 C 49.1548 23.3376 30.1942
564 1 C 69.6003 30.2996 -8.80212
565 1 C 63.0161 21.1938 16.3886
566 1 C 49.2031 -23.6173 24.5892
567 1 C 39.0506 20.1173 -0.152441
568 1 C 40.8969 3.94402 -10.9653
569 1 C 47.7601 33.0481 5.80923
570 1 C 49.9105 26.5998 17.8303
571 1 C 69.8905 -3.53278 14.271
572 1 C 52.9416 8.71243 21.0712
573 1 C 63.155 12.3262 19.7717
574 1 C 44.9145 0.589249 25.0113
575 1 C 53.9667 11.5602 29.5884
576 1 C 63.8416 2.88673 12.6392
577 1 C 69.08 7.11641 14.5834
578 1 C 44.5606 8.32573 -7.81381
579 1 C 43.1427 -0.582587 3.75004
580 1 C 39.7851 -2.2694 7.68109
581 1 C 55.9982 21.6882 0.961935
582 1 C 71.4744 10.7563 -2.26914
583 1 C 55.7557 -5.99171 6.72925
584 1 C 53.7296 24.751 -12.4276
585 1 C 46.5418 -9.60089 19.773
586 1 C 47.9782 10.9454 13.8004
587 1 C 45.2974 9.42909 7.98811
588 1 C 62.73 26.9493 7.87552
589 1 C 54.4481 14.3443 8.56495
590 1 C 67.2066 2.78213 2.39444
591 1 C 64.3033 -7.23043 10.2041
592 1 C 41.1658 28.9938 9.81673
593 1 C 47.3145 23.1216 14.9636
594 1 C 54.1802 11.7322 14.3157
595 1 C 70.7308 28.08 4.49425
596 1 C 69.4142 12.4448 23.9823
597 1 C 41.4023 24.908 13.5197
598 1 C 58.1847 0.97915 -5.20221
599 1 C 59.9101 -0.553562 -16.5515
600 1 C 42.0963 6.28124 -3.15628
601 1 C 64.8481 12.3898 8.14788
602 1 C 60.1349 -8.10102 18.3428
603 1 C 46.7733 24.5444 -3.31938
604 1 C 61.1141 -14.8049 -15.0041
605 1 C 58.2431 16.0953 2.26653
606 1 C 64.8784 4.91816 -2.14204
607 1 C 46.1464 12.9442 10.3267
608 1 C 48.3329 15.8795 32.5942
609 1 C 48.3582 -3.55193 7.82196
610 1 C 45.7419 5.72267 11.3424
611 1 C 60.0516 -1.46705 24.455
612 1 C 51.1777 0.198095 22.1075
613 1 C 47.2345 18.2832 33.0702
614 1 C 41.5387 21.2043 8.12585
615 1 C 68.8616 2.42618 6.40609
616 1 C 65.6811 -12.69 0.172228
617 1 C 62.5311 -3.59429 -0.242964
618 1 C 69.5443 9.09615 1.8395
619 1 C 58.7389 -8.15355 -18.2348
620 1 C 41.8785 18.7633 -5.01161
621 1 C 47.6913 12.8965 -1.75478
622 1 C 53.6124 -6.15676 0.96631
623 1 C 41.6111 -0.20609 -0.736377
624 1 C 54.6953 -0.434434 0.476043
625 1 C 54.8042 9.58446 30.2519
626 1 C 54.3776 8.33383 9.10334
627 1 C 60.1795 5.05095 12.1017
628 1 C 48.4264 20.7695 -0.520787
629 1 C 54.2603 6.0775 10.06
630 1 C 57.9621 22.5187 -8.27055
631 1 C 45.7393 8.95984 -8.4621
632 1 C 41.6934 6.5242 28.8888
633 1 C 44.3632 3.85513 13.978
634 1 C 68.9653 -4.37425 34.9485
635 1 C 69.9731 -4.85347 16.3405
636 1 C 40.6481 33.2405 6.61347
637 1 C 53.9711 4.18372 24.4293
638 1 C 40.8718 3.72739 17.6045
639 1 C 40.4954 20.7381 -6.31836
640 1 C 65.0789 16.0839 14.135
641 1 C 69.4715 -0.923003 -24.3414
642 1 C 56.5807 4.52039 23.7891
643 1 C 39.7878 20.9654 2.5191
644 1 C 60.8979 3.41868 0.798788
645 1 C 61.6035 20.8952 8.16621
646 1 C 63.7597 3.71124 -4.77484
647 1 C 47.9349 18.5601 1.01374
648 1 C 59.1175 1.61355 23.3781
649 1 C 49.6166 15.4824 10.2568
650 1 C 53.6025 10.0691 8.1424
651 1 C 47.5823 20.2524 18.733
652 1 C 54.7272 1.88047 10.7706
653 1 C 69.3501 24.8845 28.9229
654 1 C 62.7704 13.5999 15.5651
655 1 C 55.9049 20.3265 -21.0168
656 1 C 39.0555 0.151578 26.8381
657 1 C 63.3451 -10.755 32.3833
658 1 C 63.4098 10.6729 1.71235
659 1 C 56.6344 44.0871 -7.32691
660 1 C 42.7726 1.97823 -3.71618
661 1 C 49.0523 15.6311 14.798
662 1 C 42.6834 12.3116 -5.10929
663 1 C 43.1513 14.3479 11.1096
664 1 C 46.2541 -3.13682 6.7852
665 1 C 68.499 23.9776 9.84108
666 1 C 58.1341 3.59623 -4.57633
667 1 C 49.8728 28.3042 1.31568
668 1 C 61.3349 26.1151 9.99247
669 1 C 49.5983 -0.143042 26.1521
670 1 C 55.8356 21.4606 13.6909
671 1 C 61.4193 16.9785 8.46149
672 1 C 63.5956 20.4953 34.2958
673 1 C 54.5252 26.9923 12.4661
674 1 C 70.9226 15.64 12.9765
675 1 C 40.0219 1.36925 1.23651
676 1 C 57.1128 14.0664 -8.75263
677 1 C 61.9415 0.0533166 17.0672
678 1 C 44.0971 13.7157 27.2432
679 1 C 70.8037 26.3063 2.80695
680 1 C 57.0437 -6.88096 18.8573
681 1 C 59.9941 -14.1757 12.7357
682 1 C 54.6679 -0.988641 18.9065
683 1 C 56.6286 -2.01994 9.65668
684 1 C 48.0259 4.87292 21.2082
685 1 C 49.1927 13.3858 9.77964
686 1 C 48.7337 4.86259 10.0932
687 1 C 39.8933 20.7722 20.4808
688 1 C 44.7788 -3.18522 13.2978
689 1 C 48.4704 3.73448 32.7398
690 1 C 53.2168 18.0694 5.82269
691 1 C 67.4614 16.3199 7.46439
692 1 C 53.9202 13.9949 7.20581
693 1 C 46.4953 -20.8788 23.6551
694 1 C 56.6446 23.4471 2.0505
695 1 C 57.688 2.13642 -10.2132
696 1 C 44.8852 28.4598 -8.35552
697 1 C 50.4763 11.8328 9.00642
698 1 C 62.6812 -8.24054 16.8986
699 1 C 50.5062 19.5575 7.69309
700 1 C 39.1763 -3.61632 26.2384
701 1 C 68.8069 14.6229 20.1333
702 1 C 56.2344 -0.972574 10.2429
703 1 C 53.7433 29.4678 2.37212
704 1 C 49.2336 -5.69206 4.85733
705 1 C 62.1987 21.1524 28.2348
706 1 C 60.6074 16.4015 1.09133
707 1 C 57.7031 -2.73571 0.392614
708 1 C 55.4652 18.0355 15.6935
709 1 C 52.5584 7.30287 -0.195123
710 1 C 51.3737 7.184 5.52007
711 1 C 51.8842 12.7091 -0.723657
712 1 C 63.2236 19.6435 4.57118
713 1 C 49.5113 -9.5416 18.4496
714 1 C 68.9759 2.9613 11.0011
715 1 C 55.1639 17.8409 4.10714
716 1 C 47.8381 -2.85356 17.9232
717 1 C 48.7052 2.7206 18.1769
718 1 C 47.0222 2.01773 20.264
719 1 C 54.7039 5.83728 -16.1285
720 1 C 40.1284 10.5228 23.5858
721 1 C 50.7887 -3.45433 9.6049
722 1 C 66.6752 8.07072 21.1567
723 1 C 56.3836 2.90631 19.0525
724 1 C 47.1846 -9.99882 12.9396
725 1 C 43.22 -13.4911 27.8661
726 1 C 65.2636 27.6747 -0.400771
727 1 C 49.6936 26.8633 -2.37139
728 1 C 66.6957 3.62682 9.06752
729 1 C 54.7302 17.8701 -7.41667
730 1 C 60.4916 22.9634 -11.9988
731 1 C 51.0686 -8.26208 13.7856
732 1 C 54.4701 22.6977 3.15635
733 1 C 62.129 2.95979 18.5658
734 1 C 64.925 22.9496 6.46923
735 1 C 55.1299 22.339 5.34451
736 1 C 56.8699 4.9939 5.31457
737 1 C 61.0601 26.2185 16.2067
738 1 C 45.2622 21.0973 14.6592
739 1 C 69.4042 13.2777 6.00963
740 1 C 69.9573 21.6142 25.2339
741 1 C 42.1447 37.4325 -2.33329
742 1 C 43.2851 -4.76017 -4.34775
743 1 C 56.7317 -1.39269 6.29998
744 1 C 55.6391 16.882 16.8482
745 1 C 43.4927 13.3401 46.3803
746 1 C 61.2964 28.7401 4.2924
747 1 C 60.5832 7.68722 18.7322
748 1 C 46.1727 5.03636 45.5098
749 1 C 46.6479 8.19003 3.0942
750 1 C 40.533 13.1673 15.653
751 1 C 44.5434 18.7956 29.7542
752 1 C 50.8885 29.9331 28.0812
753 1 C 68.6033 0.0423777 19.331
754 1 C 56.6454 -3.02871 2.84748
755 1 C 68.6172 16.767 37.5545
756 1 C 39.0461 1.91932 24.9065
757 1 C 49.7079 6.72759 8.28911
758 1 C 63.6504 7.08487 8.8427
759 1 C 53.218 -9.86715 4.13097
760 1 C 59.6042 18.3249 -4.04802
761 1 C 45.3141 20.2658 -4.81982
762 1 C 42.9204 19.3433 31.3554
763 1 C 63.2872 10.783 16.6144
764 1 C 45.951 12.7055 8.99312
765 1 C 42.5729 24.1957 4.30774
766 1 C 44.4043 23.2919 -8.86621
767 1 C 65.8613 14.5669 0.363944
768 1 C 48.9539 14.4508 -0.811805
769 1 C 60.3637 -12.1158 7.90784
770 1 C 47.1572 10.605 -0.191045
771 1 C 45.2751 4.70846 -2.99301
772 1 C 56.2948 7.35201 2.97385
773 1 C 43.6728 -10.471 13.541
774 1 C 63.2832 5.65862 1.43994
775 1 C 52.342 29.0369 -3.37988
776 1 C 51.2269 -1.95942 25.9008
777 1 C 49.8927 6.73963 -2.30726
778 1 C 40.8578 7.84069 29.3161
779 1 C 61.3899 14.5613 24.5489
780 1 C 63.961 22.5303 11.1
781 1 C 52.6049 5.68503 6.62252
782 1 C 48.2562 12.1324 23.5557
783 1 C 50.5853 15.1888 12.7061
784 1 C 65.929 3.68095 -0.302453
785 1 C 43.7166 22.6753 28.4227
786 1 C 57.7764 3.86755 22.9875
787 1 C 54.6483 22.8386 -2.34416
788 1 C 69.5932 5.31322 5.75765
789 1 C 65.0532 -0.514995 11.5212
790 1 C 57.1311 -7.7477 -4.33513
791 1 C 52.9069 4.94152 -21.3039
792 1 C 44.5547 34.2912 17.999
793 1 C 47.6684 7.41013 14.618
794 1 C 45.0361 15.3197 -12.2237
795 1 C 43.6239 2.0145 30.988
796 1 C 56.0809 11.61 15.7219
797 1 C 55.9321 5.70826 -0.66379
798 1 C 46.1882 15.7049 -23.2677
799 1 C 64.5018 -8.46029 20.306
800 1 C 60.3247 4.08656 7.23648
801 1 C 61.0251 1.47994 -17.4681
802 1 C 59.4271 24.4162 17.208
803 1 C 59.7823 -5.18671 32.7941
804 1 C 57.9928 -19.0269 1.68203
805 1 C 49.8794 13.952 -15.7061
806 1 C 51.119 27.9999 -7.60582
807 1 C 49.5312 15.2285 0.33243
808 1 C 64.4509 -15.6906 18.4531
809 1 C 48.692 3.90703 13.7928
810 1 C 49.3151 23.0777 39.6558
811 1 C 65.4955 14.855 5.79658
812 1 C 62.9594 11.0293 -1.20606
813 1 C 43.2769 12.1514 7.67689
814 1 C 41.9456 6.78751 0.846847
815 1 C 67.2488 8.89736 6.66672
816 1 C 59.0552 15.0467 7.62541
817 1 C 47.0562 -10.6699 1.20724
818 1 C 53.5322 -14.7405 -10.5148
819 1 C 57.0512 3.27603 -25.5126
820 1 C 52.601 2.82557 19.2439
821 1 C 70.1425 32.3766 25.496
822 1 C 62.1083 4.41687 -2.97882
823 1 C 44.6335 -10.4953 24.5311
824 1 C 38.11 22.5234 20.2073
825 1 C 59.351 16.6507 24.5988
826 1 C 48.7446 14.3828 14.1746
827 1 C 40.8477 11.9123 23.3606
828 1 C 47.0526 27.9701 22.8633
829 1 C 53.4511 22.8258 6.76628
830 1 C 53.5715 30.9561 6.31573
831 1 C 52.796 -9.92882 20.2507
832 1 C 50.7106 13.9302 25.9082
833 1 C 38.8502 9.26025 -3.9158
834 1 C 52.228 25.184 15.8097
835 1 C 49.3906 18.3529 5.3572
836 1 C 54.6296 6.38805 0.788835
837 1 C 42.4876 19.8182 -5.32418
838 1 C 54.012 17.2753 4.85946
839 1 C 48.3216 4.38334 4.64376
840 1 C 65.7383 27.5505 9.78529
841 1 C 67.7042 -4.73012 22.1124
842 1 C 49.6884 -16.9474 23.1861
843 1 C 57.8591 -10.9007 0.562598
844 1 C 63.5528 5.92312 17.0695
845 1 C 59.4111 20.1516 18.9766
846 1 C 61.5711 13.3115 -3.74634
847 1 C 51.0466 0.111557 20.7081
848 1 C 49.1873 17.5957 1.84993
849 1 C 54.9346 34.6607 9.53694
850 1 C 50.6153 5.35216 12.8571
851 1 C 48.234 1.74973 5.40982
852 1 C 60.2392 -3.25946 16.0756
853 1 C 51.5343 -20.2837 -12.2418
854 1 C 60.771 0.295565 -5.6732
855 1 C 54.9673 2.37152 -5.31608
856 1 C 62.3997 14.5301 1.85849
857 1 C 66.6676 21.4241 -17.2528
858 1 C 61.1201 14.075 14.8682
859 1 C 42.9933 10.6764 1.07016
860 1 C 69.8114 23.4691 5.65911
861 1 C 62.4725 21.7423 19.324
862 1 C 53.9201 4.14398 13.7326
863 1 C 45.8027 29.5662 -9.55616
864 1 C 67.462 6.73463 7.83789
865 1 C 65.2243 23.9726 14.0261
866 1 C 53.7922 22.4616 0.139603
867 1 C 65.028 30.9722 3.75073
868 1 C 71.7336 0.291555 5.58872
869 1 C 56.5548 15.6566 22.2552
870 1 C 70.5188 9.70022 19.0952
871 1 C 55.8418 -18.1157 38.2772
872 1 C 42.5382 7.91998 11.9009
873 1 C 70.1192 -3.56857 6.91094
874 1 C 50.8238 7.26173 4.21776
875 1 C 68.7616 -3.41813 7.48904
876 1 C 61.6639 36.4157 -0.277312
877 1 C 51.8214 9.88059 -3.30523
878 1 C 42.8159 19.4996 11.9425
879 1 C 40.7725 -5.7129 21.32
880 1 C 44.736 -4.04909 -2.66094
881 1 C 67.1094 -3.60871 12.7564
882 1 C 46.7147 13.1763 15.7214
883 1 C 55.7004 2.12272 8.47303
884 1 C 46.3901 -12.6189 -12.3176
885 1 C 42.1324 34.3593 26.5738
886 1 C 57.5177 12.8114 5.89258
887 1 C 53.4762 -9.74185 -3.78399
888 1 C 43.3878 18.1978 3.3982
889 1 C 56.7971 6.69002 12.8816
890 1 C 42.2644 27.7681 -5.79499
891 1 C 71.9602 18.1091 -5.69868
892 1 C 50.4224 41.2908 16.2532
893 1 C 42.9268 43.095 35.9731
894 1 C 59.3327 -15.8553 -7.23362
895 1 C 66.0551 25.3942 38.1151
896 1 C 52.4456 -23.0797 13.1458
897 1 C 65.6642 32.0648 13.7312
898 1 C 66.7199 10.4257 19.3598
899 1 C 51.8597 -19.2033 -1.22409
900 1 C 43.7838 21.7168 2.85365
901 1 C 55.2078 10.2878 10.6926
902 1 C 71.7245 1.96007 21.3415
903 1 C 55.4066 -1.34406 14.6659
904 1 C 41.9547 17.358 14.0409
905 1 C 49.3271 18.7631 18.1091
906 1 C 57.4529 14.7287 8.28179
907 1 C 51.8636 4.00318 -2.73163
908 1 C 65.4042 10.0932 21.1278
909 1 C 58.7659 3.834 -0.780779
910 1 C 69.0372 -2.44573 14.9056
911 1 C 62.8985 -22.6154 22.5567
912 1 C 53.9499 9.6426 16.3833
913 1 C 63.7433 9.08762 3.28042
914 1 C 69.7019 23.5406 1.93414
915 1 C 43.1533 18.5082 32.4706
916 1 C 53.1293 36.6863 6.55359
917 1 C 49.4681 18.7102 9.96792
918 1 C 67.8038 14.7005 16.9229
919 1 C 50.8568 2.49786 15.8576
920 1 C 53.3168 17.698 31.5866
921 1 C 55.9565 12.0406 28.8045
922 1 C 43.5422 20.6183 9.57436
923 1 C 47.3899 5.68411 12.7112
924 1 C 49.0501 29.5103 -17.1518
925 1 C 58.8929 16.2436 18.157