ITEM: TIMESTEP
499950
ITEM: NUMBER OF ATOMS
4324
ITEM: BOX BOUNDS pp pp pp
0.000261 25.549639
-0.137527 19.579027
4.067067 76.325033
ITEM: ATOMS id type element x y z
1 1 C 9.966679 10.004946 53.318400 
2 1 C 0.094766 14.727794 61.822600 
3 1 C 21.680600 10.678700 4.552633 
4 1 C 10.013079 6.837940 59.163200 
5 1 C 11.101779 13.123574 50.250700 
6 1 C 7.980600 7.909746 59.810400 
7 1 C 18.960009 7.049480 54.525200 
8 1 C 3.935020 17.448200 56.440600 
9 1 C 3.426790 11.962704 69.489700 
10 1 C 9.927258 0.066295 73.765000 
11 1 C 0.569879 17.868009 71.159600 
12 1 C 4.507079 11.865000 64.932100 
13 1 C 18.504600 5.956254 62.613700 
14 1 C 25.127538 5.391091 57.530000 
15 1 C 2.177200 15.240909 62.855200 
16 1 C 17.395509 1.414646 75.590600 
17 1 C 23.401800 18.895873 59.884600 
18 1 C 5.704040 6.468600 70.905100 
19 1 C 16.911700 12.803246 52.744400 
20 1 C 22.215800 3.191580 7.157733 
21 1 C 6.350579 8.993610 61.901700 
22 1 C 20.260619 6.152454 75.001200 
23 1 C 6.882250 1.201360 66.025600 
24 1 C 0.743976 13.773246 67.584500 
25 1 C 17.368539 6.482954 69.475600 
26 1 C 20.825569 3.444390 58.642200 
27 1 C 1.184720 0.047337 76.059300 
28 1 C 13.851379 6.731350 59.361700 
29 1 C 25.381858 13.882100 65.413800 
30 1 C 4.921960 15.084000 61.049100 
31 1 C 19.868600 6.154500 62.635000 
32 1 C 3.866910 4.156746 60.905600 
33 1 C 17.245639 4.281446 5.783633 
34 1 C 6.041179 2.737380 62.483100 
35 1 C 14.500400 0.542846 60.406100 
36 1 C 9.673180 12.991900 55.466900 
37 1 C 0.996179 5.080091 62.166300 
38 1 C 19.660058 14.167654 74.647400 
39 1 C 16.270700 13.199446 75.197900 
40 1 C 15.191100 0.469346 53.803500 
41 1 C 24.336858 13.442000 70.006900 
42 1 C 10.936900 17.987144 53.158100 
43 1 C 2.252021 3.656610 58.817100 
44 1 C 17.375729 15.145991 58.923100 
45 1 C 19.686539 7.429390 70.758200 
46 1 C 19.042500 15.226900 69.014200 
47 1 C 4.519870 15.739646 66.898400 
48 1 C 3.532479 15.170624 63.095000 
49 1 C 16.641119 5.314310 65.592500 
50 1 C 3.846060 4.090670 4.747133 
51 1 C 21.012709 15.079400 60.874500 
52 1 C 25.156045 15.888400 66.827900 
53 1 C 21.498600 9.483646 4.204733 
54 1 C 16.019600 15.801734 56.431700 
55 1 C 0.424879 19.287023 66.155000 
56 1 C 19.760829 9.028960 53.145200 
57 1 C 6.949479 10.326146 53.855100 
58 1 C 20.828758 1.140091 55.038600 
59 1 C 4.675179 13.858646 57.281600 
60 1 C 15.483400 15.863400 60.514500 
61 1 C 17.686509 0.238946 69.707600 
62 1 C 24.078600 19.149400 53.684600 
63 1 C 9.864979 3.366310 75.104900 
64 1 C 22.544658 5.183609 75.149700 
65 1 C 11.171100 12.553246 55.918600 
66 1 C 10.674000 15.643100 69.691600 
67 1 C 16.961600 15.744300 52.959600 
68 1 C 19.386700 10.279400 52.225600 
69 1 C 6.414879 16.530100 56.574100 
70 1 C 11.532800 17.107500 58.561300 
71 1 C 16.636600 3.741354 75.014400 
72 1 C 1.819621 18.455814 65.225400 
73 1 C 22.025969 0.637246 60.224800 
74 1 C 0.274830 5.585054 56.443600 
75 1 C 7.101279 6.916350 62.560000 
76 1 C 3.029179 7.234054 68.202600 
77 1 C 3.471610 2.710954 73.037000 
78 1 C 23.295719 9.575991 57.729800 
79 1 C 7.091140 4.635700 69.024000 
80 1 C 12.389521 2.144946 75.126100 
81 1 C 22.156500 3.690754 71.576500 
82 1 C 23.175969 18.293124 64.006800 
83 1 C 11.856579 0.698535 56.383500 
84 1 C 15.333579 14.598500 73.762000 
85 1 C 10.597500 9.891170 64.696000 
86 1 C 11.623879 18.319564 62.323500 
87 1 C 0.786718 3.888700 58.840300 
88 1 C 25.446920 8.013380 75.742800 
89 1 C 4.886779 18.550424 65.347000 
90 1 C 5.038620 14.039200 66.712900 
91 1 C 10.786279 10.604991 70.279600 
92 1 C 3.812921 19.216800 57.755000 
93 1 C 1.169350 10.346100 65.860100 
94 1 C 24.992000 15.964400 59.417300 
95 1 C 19.310200 9.333246 68.925200 
96 1 C 25.186258 10.442146 61.427300 
97 1 C 12.439179 0.830446 53.652600 
98 1 C 20.685319 18.542900 61.346200 
99 1 C 2.982300 7.042291 69.877400 
100 1 C 0.027833 1.673546 58.912300 
101 1 C 7.997560 13.322574 57.519300 
102 1 C 7.886979 9.033809 75.160800 
103 1 C 8.583210 16.590100 62.767700 
104 1 C 6.426879 17.331300 65.732400 
105 1 C 8.293979 14.089546 52.622100 
106 1 C 8.890310 11.655300 5.592333 
107 1 C 14.243900 10.891700 62.069900 
108 1 C 17.979600 5.281220 66.165300 
109 1 C 20.411609 3.683460 75.489700 
110 1 C 15.326679 16.379000 58.274000 
111 1 C 1.670621 15.353746 73.365200 
112 1 C 2.141250 17.796300 54.871200 
113 1 C 12.792900 8.045391 56.667600 
114 1 C 21.561849 15.885100 66.277400 
115 1 C 20.141869 8.238590 69.560400 
116 1 C 21.558199 1.571830 72.905600 
117 1 C 15.614900 0.977546 55.066900 
118 1 C 13.632779 16.293446 72.780600 
119 1 C 21.311119 16.048900 72.784500 
120 1 C 16.018739 12.142304 76.239600 
121 1 C 16.482200 13.356400 56.632300 
122 1 C 16.589100 5.339054 64.025800 
123 1 C 22.755958 8.330754 65.430800 
124 1 C 14.326221 10.805124 63.832500 
125 1 C 25.393958 17.686284 72.718900 
126 1 C 5.016090 12.516609 74.198700 
127 1 C 6.341870 0.747091 53.516400 
128 1 C 14.396779 10.843274 67.486600 
129 1 C 1.140970 10.854146 71.056900 
130 1 C 8.111458 15.738200 57.966200 
131 1 C 12.766479 17.534524 58.376300 
132 1 C 18.527500 1.938990 56.656000 
133 1 C 17.383700 13.127754 71.914300 
134 1 C 2.748179 1.390046 67.079200 
135 1 C 21.726900 8.106040 62.956900 
136 1 C 22.903458 3.179546 56.299100 
137 1 C 11.619400 3.008546 74.392300 
138 1 C 8.724230 6.461760 68.388100 
139 1 C 10.660779 8.211000 69.851000 
140 1 C 8.276279 2.478091 65.536600 
141 1 C 4.939421 17.204314 62.210200 
142 1 C 17.339949 9.326054 73.878100 
143 1 C 19.647269 10.517400 72.882700 
144 1 C 21.821600 8.558546 71.741700 
145 1 C 13.785579 4.506046 58.950000 
146 1 C 11.068200 10.819500 59.943900 
147 1 C 16.521979 14.683200 67.926800 
148 1 C 16.220779 7.251946 59.891700 
149 1 C 6.732279 6.906350 56.398900 
150 1 C 15.384379 0.114146 73.295300 
151 1 C 18.550779 2.381170 60.177200 
152 1 C 25.300276 15.056514 56.663700 
153 1 C 9.560490 18.670734 73.174100 
154 1 C 14.047179 7.852970 72.677700 
155 1 C 10.645679 7.668054 72.908900 
156 1 C 11.736679 0.847446 52.429600 
157 1 C 11.208079 18.856147 54.496400 
158 1 C 18.185879 7.359091 60.385100 
159 1 C 18.740200 5.917220 65.149800 
160 1 C 7.827940 4.354720 72.181200 
161 1 C 21.573500 1.878070 6.964933 
162 1 C 12.449879 2.535146 66.755600 
163 1 C 19.004309 2.967154 75.588900 
164 1 C 17.651600 6.005846 60.514500 
165 1 C 9.140479 17.192300 75.499000 
166 1 C 3.969121 8.068746 70.602600 
167 1 C 8.253379 10.173894 60.976000 
168 1 C 8.355279 0.239946 64.467800 
169 1 C 18.408389 1.343754 52.268600 
170 1 C 19.809358 18.498674 55.889100 
171 1 C 23.028158 4.778090 63.145100 
172 1 C 0.202874 9.126320 5.944933 
173 1 C 17.480000 13.311544 63.393800 
174 1 C 7.145379 17.684791 64.500800 
175 1 C 14.300900 15.994200 68.295500 
176 1 C 22.365200 0.684046 4.826733 
177 1 C 25.433636 8.924791 74.565400 
178 1 C 20.880189 7.388550 59.987900 
179 1 C 9.168130 7.607846 54.004200 
180 1 C 5.604079 18.845900 54.167900 
181 1 C 11.194700 3.028030 67.074100 
182 1 C 10.069679 11.966600 72.081400 
183 1 C 2.219379 0.825363 53.261500 
184 1 C 1.518979 0.951590 67.799400 
185 1 C 12.405379 1.948309 69.997600 
186 1 C 8.837679 9.638854 66.822900 
187 1 C 24.362599 18.434200 73.547000 
188 1 C 7.304279 0.066171 59.382800 
189 1 C 6.378221 16.822500 59.503500 
190 1 C 15.195779 14.992800 68.369500 
191 1 C 9.123579 7.223290 75.664200 
192 1 C 24.829809 16.884504 54.379700 
193 1 C 13.427258 7.982754 65.752400 
194 1 C 17.229009 18.891209 55.333000 
195 1 C 10.173900 0.421546 65.638600 
196 1 C 8.816479 4.754170 61.963400 
197 1 C 12.749500 16.783600 55.227600 
198 1 C 1.144960 2.553580 62.069700 
199 1 C 12.989979 4.492346 70.202700 
200 1 C 2.381960 11.337946 66.022800 
201 1 C 11.818779 8.506360 61.479900 
202 1 C 20.432000 6.021946 72.772500 
203 1 C 6.581350 3.576791 57.914100 
204 1 C 23.823299 12.787200 52.805500 
205 1 C 15.602869 1.648346 64.681300 
206 1 C 18.883000 6.190140 74.676600 
207 1 C 1.121490 9.365846 58.723200 
208 1 C 7.682379 2.961330 72.086300 
209 1 C 1.931470 18.337200 70.988300 
210 1 C 6.411679 5.309854 6.053433 
211 1 C 15.956579 11.856163 69.373300 
212 1 C 25.134308 2.303140 55.226200 
213 1 C 7.382179 7.619410 54.162900 
214 1 C 21.658089 5.735640 61.141300 
215 1 C 12.892579 11.482154 71.359800 
216 1 C 7.234779 15.275900 61.189400 
217 1 C 20.988039 6.562060 58.897200 
218 1 C 19.557279 18.026014 63.378900 
219 1 C 5.113621 2.668854 61.260900 
220 1 C 7.487610 16.832800 50.805800 
221 1 C 13.620800 15.599046 55.910000 
222 1 C 15.766559 14.163609 61.639300 
223 1 C 2.571840 8.455646 59.007700 
224 1 C 19.259789 10.688700 69.541100 
225 1 C 6.034720 10.817146 58.796000 
226 1 C 15.604558 5.755690 67.715400 
227 1 C 17.500800 3.654546 58.214600 
228 1 C 18.917239 1.192546 59.823700 
229 1 C 5.385579 1.624190 54.081700 
230 1 C 0.698048 16.403254 63.959400 
231 1 C 11.155600 15.232464 75.221800 
232 1 C 16.665519 16.978809 57.765800 
233 1 C 10.358200 14.147474 66.616800 
234 1 C 7.961010 11.693200 66.488700 
235 1 C 11.380179 8.504254 68.763500 
236 1 C 2.034270 10.968774 69.083400 
237 1 C 18.479629 10.575954 71.808900 
238 1 C 7.548721 10.135746 72.073100 
239 1 C 13.939800 0.522346 65.840800 
240 1 C 12.711779 18.577944 75.548200 
241 1 C 17.683800 0.643246 73.968700 
242 1 C 8.628079 12.252064 54.478300 
243 1 C 17.524749 9.265346 58.904300 
244 1 C 3.010410 15.504834 55.301400 
245 1 C 6.338530 10.353300 61.742600 
246 1 C 22.107669 11.422000 73.931600 
247 1 C 8.990479 16.209900 72.753800 
248 1 C 12.859279 5.852346 74.312500 
249 1 C 3.520979 5.809046 70.301300 
250 1 C 23.123109 0.729474 57.081100 
251 1 C 23.145358 5.855746 66.945500 
252 1 C 14.003379 17.323500 75.501200 
253 1 C 16.583669 4.739146 53.066500 
254 1 C 17.419900 9.405246 6.051633 
255 1 C 2.294590 18.845200 53.072300 
256 1 C 18.070159 18.016764 60.110900 
257 1 C 1.669940 18.216444 57.782000 
258 1 C 10.722500 8.718046 55.744800 
259 1 C 18.927500 2.732654 63.079600 
260 1 C 3.535258 2.863646 76.101000 
261 1 C 8.540890 14.741146 76.189200 
262 1 C 4.622080 9.349890 6.273633 
263 1 C 20.568258 5.757880 53.590300 
264 1 C 13.369879 7.921246 59.512000 
265 1 C 24.472379 13.813200 59.701300 
266 1 C 7.920021 7.880754 71.248600 
267 1 C 10.141079 10.230800 55.617400 
268 1 C 15.279679 11.857300 5.096633 
269 1 C 21.975879 2.518346 58.387200 
270 1 C 23.656500 6.641509 61.186900 
271 1 C 14.346000 3.222709 64.394600 
272 1 C 0.752272 3.733254 55.897100 
273 1 C 8.314930 6.630954 59.786000 
274 1 C 2.207960 14.053174 58.530200 
275 1 C 23.287100 1.682846 66.648700 
276 1 C 23.188158 9.275370 67.014000 
277 1 C 19.549200 3.687046 62.131000 
278 1 C 5.633080 6.938110 62.340700 
279 1 C 3.833279 6.265350 64.072600 
280 1 C 4.142958 2.110954 63.862100 
281 1 C 14.585179 1.674600 57.329200 
282 1 C 6.948930 16.381434 74.580300 
283 1 C 2.921679 1.244300 63.809600 
284 1 C 21.487649 0.309546 62.865700 
285 1 C 18.783589 10.211800 65.584800 
286 1 C 23.143469 5.211354 54.079500 
287 1 C 5.205920 0.697692 58.232500 
288 1 C 22.150169 8.987054 75.179000 
289 1 C 4.889420 17.606904 75.661800 
290 1 C 1.406980 5.675810 73.740700 
291 1 C 17.033169 17.138600 52.733800 
292 1 C 21.664400 9.297346 58.175700 
293 1 C 14.462279 2.570946 53.312800 
294 1 C 4.407000 3.774491 53.735000 
295 1 C 9.349779 2.075746 63.243800 
296 1 C 4.606680 2.857454 67.252900 
297 1 C 23.302100 6.515170 54.140200 
298 1 C 8.447479 12.018846 64.291900 
299 1 C 5.061379 9.617560 56.122200 
300 1 C 1.979930 2.799170 71.963700 
301 1 C 10.343179 2.874446 68.417300 
302 1 C 16.264549 9.167354 71.882900 
303 1 C 10.061600 17.010746 58.760000 
304 1 C 1.926321 0.598546 63.203600 
305 1 C 2.021220 15.383691 68.533800 
306 1 C 20.673879 2.092054 64.866300 
307 1 C 3.988221 12.237474 52.664600 
308 1 C 12.162679 18.492700 63.620100 
309 1 C 18.215858 5.381191 67.646100 
310 1 C 15.259679 13.265624 74.162000 
311 1 C 17.309069 4.953446 58.164700 
312 1 C 1.458060 2.773280 56.929700 
313 1 C 0.781937 11.357300 69.680700 
314 1 C 24.591858 15.385914 72.993200 
315 1 C 10.410321 7.832490 67.723900 
316 1 C 9.771420 13.726300 63.851300 
317 1 C 7.835260 16.617974 63.982500 
318 1 C 11.282979 10.478846 53.162700 
319 1 C 18.479800 9.012150 64.937400 
320 1 C 1.711370 3.314820 65.562300 
321 1 C 16.479800 4.033891 61.450100 
322 1 C 14.068600 2.772246 61.604900 
323 1 C 18.518319 11.359546 53.111200 
324 1 C 3.524660 17.998400 75.793000 
325 1 C 13.070679 8.000150 67.486000 
326 1 C 21.825119 7.845930 56.338200 
327 1 C 15.033136 1.193254 69.833600 
328 1 C 5.086921 16.194374 56.608200 
329 1 C 14.949800 1.920346 68.494700 
330 1 C 13.798200 8.219570 74.168400 
331 1 C 14.846658 5.952554 51.867800 
332 1 C 21.771000 5.997754 66.613700 
333 1 C 17.360419 10.925500 72.394000 
334 1 C 0.230043 8.035854 68.211700 
335 1 C 14.715679 18.311314 70.166000 
336 1 C 12.759179 12.506309 67.387900 
337 1 C 17.207221 1.309920 66.149200 
338 1 C 20.098800 11.590800 58.356100 
339 1 C 14.561779 14.464100 62.122800 
340 1 C 5.011860 9.350391 54.677500 
341 1 C 17.524600 17.870400 61.571800 
342 1 C 9.837350 7.037700 68.869100 
343 1 C 20.354699 4.253990 59.860600 
344 1 C 1.348200 7.287446 55.764700 
345 1 C 5.003070 5.438400 6.355133 
346 1 C 22.719300 13.347900 58.096400 
347 1 C 0.016822 5.903370 75.186400 
348 1 C 25.490115 10.799800 53.249600 
349 1 C 21.631258 4.582930 63.984400 
350 1 C 14.765379 18.467800 73.560500 
351 1 C 22.005999 14.476900 55.561000 
352 1 C 1.543820 19.554946 64.297300 
353 1 C 25.237158 12.585000 75.897800 
354 1 C 23.656839 3.085954 6.656033 
355 1 C 8.866510 2.383700 55.795000 
356 1 C 0.883571 2.870346 6.512133 
357 1 C 13.855679 4.133791 57.247000 
358 1 C 16.213300 9.129670 64.039100 
359 1 C 9.498879 15.367124 66.013200 
360 1 C 13.869179 3.147946 56.119300 
361 1 C 4.888279 13.103200 64.639800 
362 1 C 21.273658 5.003550 75.158100 
363 1 C 15.338400 5.924600 63.035200 
364 1 C 7.058379 4.070346 6.038933 
365 1 C 8.381279 -0.016654 60.409600 
366 1 C 15.535579 18.229500 68.670900 
367 1 C 24.949358 6.243146 64.098200 
368 1 C 25.509400 4.261700 75.462300 
369 1 C 23.023858 1.600691 4.263433 
370 1 C 6.385090 2.157980 72.120800 
371 1 C 16.825558 1.441830 58.873900 
372 1 C 22.578889 17.167814 66.128500 
373 1 C 18.775600 18.866309 74.095600 
374 1 C 21.321479 15.095800 63.840200 
375 1 C 22.338958 0.991446 73.879900 
376 1 C 22.117509 10.375146 6.228633 
377 1 C 21.849669 14.905746 65.118400 
378 1 C 9.656400 19.120200 66.490900 
379 1 C 24.630541 1.150791 64.687400 
380 1 C 25.019640 11.585700 69.600500 
381 1 C 0.408994 7.782446 60.129100 
382 1 C 2.204221 16.997200 67.253400 
383 1 C 20.031800 9.211091 6.826633 
384 1 C 22.191558 5.518070 6.428833 
385 1 C 22.422458 1.345954 52.582600 
386 1 C 12.124679 16.804500 53.149700 
387 1 C 10.424179 11.497100 56.572000 
388 1 C 10.001279 19.219700 70.837100 
389 1 C 2.822520 9.542154 53.597000 
390 1 C 16.351649 9.145340 66.470700 
391 1 C 0.089792 2.511330 52.503000 
392 1 C 5.681979 16.408946 75.412100 
393 1 C 10.950179 6.694220 65.513300 
394 1 C 17.668500 11.352600 56.560300 
395 1 C 10.018400 12.627346 67.514500 
396 1 C 18.676859 6.939246 71.628300 
397 1 C 19.731139 13.610944 71.179800 
398 1 C 24.045000 8.469254 58.180200 
399 1 C 6.524479 9.113370 54.409600 
400 1 C 1.347979 15.332604 61.808300 
401 1 C 24.259658 7.296254 53.482700 
402 1 C 18.674579 13.923400 65.561100 
403 1 C 14.989279 10.020100 58.523000 
404 1 C 9.078379 10.629200 73.775700 
405 1 C 11.752379 15.405654 58.582200 
406 1 C 2.650179 4.297250 75.476500 
407 1 C 11.265979 9.890610 66.077600 
408 1 C 5.329279 17.789824 63.243800 
409 1 C 13.083179 10.040646 72.517100 
410 1 C 3.108670 7.093546 53.919900 
411 1 C 9.286479 12.805334 53.227400 
412 1 C 9.167579 2.488030 66.575400 
413 1 C 18.491339 1.233540 68.549900 
414 1 C 6.167979 12.416600 53.494400 
415 1 C 21.520629 15.088294 52.580300 
416 1 C 7.159140 3.179746 62.061200 
417 1 C 21.384700 13.759800 71.942800 
418 1 C 17.484809 19.064409 63.867800 
419 1 C 3.911279 3.651790 63.940000 
420 1 C 4.272979 9.146346 57.014800 
421 1 C 23.828900 14.105274 75.458700 
422 1 C 12.191579 13.311000 64.418400 
423 1 C 12.428879 9.166746 66.763600 
424 1 C 17.146258 11.427700 52.623000 
425 1 C 9.054950 9.873640 68.989500 
426 1 C 5.261421 18.878926 63.842600 
427 1 C 23.112759 10.638646 66.712200 
428 1 C 5.142230 3.777680 60.292900 
429 1 C 22.326089 0.894354 61.908700 
430 1 C 15.628159 10.094746 75.231700 
431 1 C 23.995700 7.837946 64.938700 
432 1 C 17.978258 14.559464 72.382200 
433 1 C 3.675379 6.019140 53.802900 
434 1 C 1.178721 16.174900 67.822200 
435 1 C 11.509679 9.288160 60.086100 
436 1 C 8.929070 12.824400 63.182200 
437 1 C 8.472350 1.206746 61.059100 
438 1 C 8.077858 -0.033054 68.903400 
439 1 C 10.652700 10.344546 6.375433 
440 1 C 7.004621 0.981909 75.430200 
441 1 C 2.885279 16.871800 55.463300 
442 1 C 8.227979 6.077530 62.334100 
443 1 C 24.630833 9.936346 73.709600 
444 1 C 23.694158 8.527054 55.272700 
445 1 C 22.999458 0.170346 69.023300 
446 1 C 24.905479 9.781360 60.100200 
447 1 C 9.743560 13.347714 70.685700 
448 1 C 5.962920 9.706520 70.575400 
449 1 C 9.616679 12.595100 68.945000 
450 1 C 15.922029 17.280900 63.003600 
451 1 C 8.712979 19.176443 53.584500 
452 1 C 20.949729 15.799800 67.717100 
453 1 C 18.573358 9.783546 74.862500 
454 1 C 3.114210 5.297054 4.288233 
455 1 C 12.505800 7.072550 65.102500 
456 1 C 22.454899 2.917040 4.172433 
457 1 C 23.494558 6.993840 57.344000 
458 1 C 0.941879 12.504100 6.693733 
459 1 C 22.549658 14.035000 71.314200 
460 1 C 13.137779 14.170646 61.512600 
461 1 C 24.534358 12.531144 68.471300 
462 1 C 3.979690 14.957300 4.311433 
463 1 C 9.974079 16.747994 65.654900 
464 1 C 0.399693 9.196146 59.874600 
465 1 C 17.539458 15.045300 69.205400 
466 1 C 19.590129 5.214460 57.049300 
467 1 C 10.082279 18.819246 53.757400 
468 1 C 0.092428 6.776046 6.333233 
469 1 C 23.675169 10.570800 56.811600 
470 1 C 22.708129 19.151100 67.577800 
471 1 C 23.773059 2.393454 72.889900 
472 1 C 8.640840 5.334300 67.582700 
473 1 C 5.434430 14.848504 56.058600 
474 1 C 5.265690 17.819046 50.472800 
475 1 C 20.588519 15.536000 57.257900 
476 1 C 21.877089 16.008000 61.631000 
477 1 C 2.216021 14.837100 60.729800 
478 1 C 23.128200 9.757614 73.553100 
479 1 C 19.154749 16.189794 61.444800 
480 1 C 8.850300 9.725024 74.706500 
481 1 C 20.188600 16.719700 6.719333 
482 1 C 23.320858 17.380104 76.099500 
483 1 C 0.523879 19.052200 57.145000 
484 1 C 24.349429 4.348446 6.311033 
485 1 C 11.089158 14.065700 63.921700 
486 1 C 1.343679 10.630324 52.807700 
487 1 C 5.422479 19.144700 68.905800 
488 1 C 13.061179 6.705654 5.789433 
489 1 C 7.850079 14.436700 55.215700 
490 1 C 6.440679 11.964724 70.989100 
491 1 C 20.972769 1.202746 52.304100 
492 1 C 14.280679 16.951994 62.737200 
493 1 C 23.254779 11.303109 65.518900 
494 1 C 2.627579 17.820584 73.690800 
495 1 C 25.173358 2.901380 72.726200 
496 1 C 3.294850 2.883230 53.623800 
497 1 C 18.675869 11.254546 70.614000 
498 1 C 11.630279 13.511100 66.949400 
499 1 C 7.146490 19.364391 75.942800 
500 1 C 5.048479 11.301634 62.047000 
501 1 C 0.162411 8.456646 57.761100 
502 1 C 17.966079 10.848146 75.818700 
503 1 C 21.592069 15.858500 75.000200 
504 1 C 4.846250 4.593654 63.906300 
505 1 C 10.083579 8.194291 57.943500 
506 1 C 12.574700 0.503646 72.402400 
507 1 C 6.063210 14.741300 68.836100 
508 1 C 3.858379 14.403246 64.529000 
509 1 C 17.322100 19.072900 5.818333 
510 1 C 2.030860 2.577246 61.053800 
511 1 C 23.531458 7.071354 69.834600 
512 1 C 13.651079 4.550990 65.185200 
513 1 C 4.873130 18.646846 61.267800 
514 1 C 6.430570 14.970100 6.351833 
515 1 C 16.991600 13.664300 62.060300 
516 1 C 4.205000 12.231146 55.592300 
517 1 C 21.963469 11.304546 63.528900 
518 1 C 22.827658 10.533691 64.050100 
519 1 C 16.367759 19.374300 68.183400 
520 1 C 1.368340 15.332434 70.283100 
521 1 C 8.099690 11.112064 54.348500 
522 1 C 10.862379 0.936846 73.039200 
523 1 C 10.807279 6.141200 53.154400 
524 1 C 19.014000 5.306891 53.877000 
525 1 C 1.868600 14.106900 74.089200 
526 1 C 20.456500 17.067046 54.042800 
527 1 C 13.587579 9.481146 73.737400 
528 1 C 14.001800 -0.059184 69.921500 
529 1 C 9.583250 10.552800 59.273800 
530 1 C 17.851939 2.512554 53.011300 
531 1 C 11.991100 15.158800 69.815400 
532 1 C 6.503760 13.722846 53.333900 
533 1 C 0.095332 12.599400 62.104800 
534 1 C 23.187558 6.392854 75.441100 
535 1 C 7.346510 11.658700 5.915233 
536 1 C 23.532119 5.611840 57.486000 
537 1 C 23.536900 0.332978 66.797500 
538 1 C 11.238300 5.328950 57.470500 
539 1 C 18.421479 5.859900 55.034500 
540 1 C 3.314021 3.746830 57.781500 
541 1 C 7.538021 10.322100 66.316300 
542 1 C 18.262700 12.825154 70.686800 
543 1 C 23.732879 2.903646 61.727300 
544 1 C 1.761642 12.460591 56.155600 
545 1 C 19.502079 0.441746 67.814500 
546 1 C 6.729679 2.202546 68.374900 
547 1 C 16.516000 18.523300 58.392000 
548 1 C 15.084200 5.734046 71.461400 
549 1 C 0.967058 9.826870 64.599600 
550 1 C 6.307900 16.931114 69.097900 
551 1 C 15.484379 19.213500 53.148500 
552 1 C 10.424800 4.669254 74.948700 
553 1 C 14.314100 14.616214 63.582500 
554 1 C 8.724780 17.694564 69.593000 
555 1 C 11.032658 2.808746 6.581133 
556 1 C 4.561750 2.243346 50.727200 
557 1 C 13.145479 14.964244 58.467500 
558 1 C 15.664158 9.637180 56.026600 
559 1 C 3.950870 0.962191 55.391400 
560 1 C 16.004700 12.647400 66.693000 
561 1 C 12.922279 12.261000 63.894500 
562 1 C 16.087200 2.366846 67.792100 
563 1 C 1.272980 17.198200 60.791400 
564 1 C 18.282900 18.007364 55.019500 
565 1 C 2.782250 13.594600 60.343500 
566 1 C 1.475579 11.134546 56.857300 
567 1 C 14.787379 17.313844 67.769300 
568 1 C 20.554958 7.899746 67.214400 
569 1 C 2.145540 4.922646 68.002500 
570 1 C 24.472099 16.469500 76.208000 
571 1 C 17.288800 6.601554 74.800600 
572 1 C 25.419400 17.285154 55.385600 
573 1 C 3.956350 7.515409 75.411200 
574 1 C 24.298089 14.128146 52.545200 
575 1 C 23.458669 2.872554 69.285000 
576 1 C 15.427300 13.822800 59.206500 
577 1 C 8.921160 2.291446 72.012800 
578 1 C 17.860558 17.722446 74.278100 
579 1 C 21.104279 2.670691 4.241733 
580 1 C 19.710119 10.393800 61.663800 
581 1 C 22.526559 8.585470 72.709300 
582 1 C 15.142779 1.834450 56.061200 
583 1 C 18.719800 16.344264 74.862000 
584 1 C 16.322958 3.204540 68.941500 
585 1 C 21.365569 11.571000 6.548733 
586 1 C 8.467179 18.635134 75.701900 
587 1 C 5.795979 1.344246 65.464100 
588 1 C 12.326579 5.422946 63.250300 
589 1 C 15.674700 14.922424 52.906300 
590 1 C 11.359779 2.374640 72.883400 
591 1 C 16.043549 16.717046 50.137200 
592 1 C 2.953330 7.135470 58.623100 
593 1 C 10.024479 4.998580 54.418600 
594 1 C 22.065749 17.902274 67.262300 
595 1 C 25.237191 12.210800 53.042200 
596 1 C 2.084110 3.481746 53.431100 
597 1 C 5.349279 1.692446 63.761000 
598 1 C 14.909779 15.947800 55.562400 
599 1 C 24.581981 1.641946 6.886033 
600 1 C 12.990279 14.581754 69.586700 
601 1 C 2.243610 4.969446 53.709100 
602 1 C 21.343600 7.460254 71.112800 
603 1 C 16.374609 5.262100 74.915700 
604 1 C 19.900449 2.164554 69.529500 
605 1 C 15.133821 4.355291 59.588200 
606 1 C 17.217329 6.321830 70.951800 
607 1 C 17.009159 1.034420 70.379200 
608 1 C 13.631779 2.197020 70.388900 
609 1 C 2.647321 4.376391 70.228400 
610 1 C 16.274499 8.675146 74.970700 
611 1 C 23.508509 15.762404 69.221300 
612 1 C 5.015479 2.783146 75.564300 
613 1 C 25.238729 18.391684 69.866800 
614 1 C 1.977521 15.755446 64.294000 
615 1 C 17.892658 5.665954 63.643300 
616 1 C 12.779000 13.629246 65.987400 
617 1 C 13.656279 5.334690 71.511100 
618 1 C 18.338829 5.880980 57.649100 
619 1 C 21.555409 17.259200 69.711000 
620 1 C 20.310759 0.476691 59.484800 
621 1 C 9.098979 2.343746 75.545300 
622 1 C 20.425158 7.340446 64.874500 
623 1 C 9.671179 15.356591 57.024100 
624 1 C 24.363229 17.848246 53.469200 
625 1 C 17.664579 1.162546 61.208800 
626 1 C 2.736530 9.974220 61.656600 
627 1 C 23.748249 12.215000 67.133100 
628 1 C 23.007369 0.044591 52.891300 
629 1 C 23.822000 18.587200 69.565300 
630 1 C 16.412869 3.785960 63.598800 
631 1 C 18.173369 14.649894 56.142700 
632 1 C 8.640458 12.471900 65.650100 
633 1 C 9.788760 19.213790 75.632200 
634 1 C 21.570049 4.324046 6.698433 
635 1 C 3.795170 10.763114 59.150000 
636 1 C 23.540400 5.465640 6.331233 
637 1 C 14.235100 5.809646 67.892500 
638 1 C 16.172199 9.353237 62.708900 
639 1 C 16.572809 19.246500 66.839400 
640 1 C 9.445950 10.475294 6.095533 
641 1 C 19.817219 17.510809 58.361700 
642 1 C 19.711758 15.343400 54.142300 
643 1 C 14.252579 14.107000 69.485800 
644 1 C 20.356669 18.819938 72.655100 
645 1 C 4.966079 5.478350 70.498900 
646 1 C 11.350758 11.704824 71.152100 
647 1 C 6.297430 13.213184 70.162100 
648 1 C 18.748521 10.571791 55.803600 
649 1 C 23.566199 2.627746 60.164300 
650 1 C 3.261521 5.233554 61.611400 
651 1 C 0.022725 9.817446 63.683500 
652 1 C 12.751479 18.943600 60.076700 
653 1 C 23.002679 15.558500 52.986100 
654 1 C 2.368379 2.038546 76.242200 
655 1 C 3.423620 15.655846 69.022000 
656 1 C 15.035800 14.308800 64.872700 
657 1 C 10.697800 7.821346 56.666300 
658 1 C 18.810319 12.144504 66.894600 
659 1 C 0.462105 12.591646 64.581400 
660 1 C 15.972709 5.171954 58.796800 
661 1 C 7.718521 16.486200 67.551000 
662 1 C 1.813510 10.978709 74.570700 
663 1 C 0.995960 0.365567 6.657833 
664 1 C 15.055700 1.881846 75.927300 
665 1 C 14.506000 11.606146 56.360400 
666 1 C 5.685610 10.875200 64.497800 
667 1 C 11.802000 17.617694 64.654400 
668 1 C 5.051300 13.838791 58.535400 
669 1 C 8.429800 8.818446 57.701200 
670 1 C 24.788700 19.462300 4.885433 
671 1 C 14.321121 11.960900 70.441300 
672 1 C 13.928679 6.260590 54.357900 
673 1 C 18.694100 6.186130 68.757600 
674 1 C 8.844179 14.015891 56.217900 
675 1 C 25.085187 9.272054 67.548900 
676 1 C 20.285809 11.946646 66.976000 
677 1 C 15.198679 7.713446 75.050400 
678 1 C 24.407858 6.800420 66.580400 
679 1 C 20.730799 2.546846 67.313700 
680 1 C 4.681260 2.074740 66.114500 
681 1 C 5.259479 7.527154 71.499600 
682 1 C 20.447558 7.138300 63.423600 
683 1 C 2.412490 7.798670 65.521200 
684 1 C 21.521209 11.529100 61.528300 
685 1 C 0.368279 3.289120 65.026300 
686 1 C 17.311679 7.865254 75.665500 
687 1 C 7.978490 15.855000 54.485900 
688 1 C 4.715620 6.085246 62.805000 
689 1 C 12.966079 3.524480 65.867900 
690 1 C 15.414979 13.958800 71.332000 
691 1 C 4.142660 1.342046 73.014500 
692 1 C 12.313779 3.980710 62.453200 
693 1 C 4.029520 16.974600 71.145100 
694 1 C 20.599429 10.967000 62.346300 
695 1 C 2.479090 12.577400 6.527333 
696 1 C 23.160400 1.358140 69.580800 
697 1 C 8.880840 19.051809 69.797000 
698 1 C 8.083779 11.812944 57.457300 
699 1 C 22.246349 13.629646 62.373200 
700 1 C 10.911600 16.446554 60.572500 
701 1 C 1.154321 19.294289 67.630500 
702 1 C 14.251179 3.930091 53.374900 
703 1 C 20.176700 6.868240 5.822333 
704 1 C 14.185600 5.262291 74.072600 
705 1 C 6.939220 4.265646 56.308400 
706 1 C 23.519509 3.607046 53.543600 
707 1 C 20.010158 7.647354 56.885500 
708 1 C 20.651500 11.369934 63.657800 
709 1 C 22.695058 10.354400 60.559400 
710 1 C 6.523950 7.901280 5.644733 
711 1 C 4.888079 5.589450 58.413200 
712 1 C 13.588979 1.544340 75.384500 
713 1 C 16.997619 15.811454 71.664800 
714 1 C 19.931039 14.791346 70.052000 
715 1 C 21.328458 4.478554 68.931400 
716 1 C 22.304919 18.559274 55.674400 
717 1 C 3.607079 18.514809 60.481800 
718 1 C 12.967879 5.612946 64.472000 
719 1 C 7.491379 16.770214 55.465700 
720 1 C 5.341880 5.108754 68.954700 
721 1 C 8.170010 8.888246 72.153800 
722 1 C 5.397421 13.069100 67.448800 
723 1 C 23.960158 15.277300 74.442600 
724 1 C 19.311758 6.476946 72.736100 
725 1 C 5.465979 12.404300 54.845800 
726 1 C 16.488458 14.073044 66.765700 
727 1 C 1.855221 4.266446 71.603800 
728 1 C 15.093079 19.195800 66.553900 
729 1 C 7.976490 16.410664 61.376400 
730 1 C 21.194100 16.762214 71.012500 
731 1 C 22.679729 11.647074 70.227900 
732 1 C 9.063279 5.981146 58.762900 
733 1 C 7.441221 14.407300 58.232100 
734 1 C 20.055829 18.730600 57.220600 
735 1 C 21.705329 19.120100 64.055200 
736 1 C 6.605900 14.992000 72.694000 
737 1 C 21.066121 1.593070 70.150400 
738 1 C 15.648199 9.716340 70.744600 
739 1 C 4.442430 1.866210 69.319100 
740 1 C 0.445079 1.953600 69.087400 
741 1 C 10.950000 5.915290 62.808200 
742 1 C 6.683279 8.887354 73.387000 
743 1 C 23.701679 2.759190 55.090200 
744 1 C 21.415058 4.945970 55.199300 
745 1 C 23.080939 3.927054 75.426500 
746 1 C 19.140000 2.382200 64.569100 
747 1 C 11.249758 17.705964 70.306500 
748 1 C 25.380234 4.877946 58.653400 
749 1 C 10.055479 8.779054 72.077500 
750 1 C 20.469329 13.890346 60.946500 
751 1 C 0.877779 17.271700 4.578133 
752 1 C 6.989930 8.110146 57.584500 
753 1 C 16.501400 9.637090 58.096900 
754 1 C 25.293046 9.845430 72.356400 
755 1 C 10.269600 2.766554 71.939500 
756 1 C 7.380870 13.832446 73.191600 
757 1 C 24.548300 6.857954 75.764900 
758 1 C 5.540279 0.418939 63.025400 
759 1 C 20.540500 11.180309 69.522300 
760 1 C 23.196729 17.293200 52.566000 
761 1 C 4.368779 18.698600 56.764400 
762 1 C 14.701958 11.516400 59.247300 
763 1 C 7.389979 9.879190 57.140300 
764 1 C 24.371658 0.642454 76.075400 
765 1 C 16.064939 18.599009 63.618000 
766 1 C 21.582999 12.166946 75.360000 
767 1 C 18.331399 17.551754 70.787900 
768 1 C 9.266479 2.359637 58.770300 
769 1 C 23.857709 6.511220 73.192600 
770 1 C 13.892879 9.781560 54.637100 
771 1 C 14.506579 0.918491 64.672800 
772 1 C 8.168120 5.199246 70.983300 
773 1 C 1.802460 12.130534 75.312900 
774 1 C 24.737158 11.537500 57.028000 
775 1 C 19.723800 8.085591 60.364300 
776 1 C 18.041409 0.455591 6.306533 
777 1 C 25.346800 14.084114 70.747200 
778 1 C 0.851521 5.395354 6.513733 
779 1 C 19.510300 17.609300 59.707200 
780 1 C 7.807280 0.643246 53.985200 
781 1 C 5.421058 4.483340 74.161900 
782 1 C 16.971858 8.739660 65.169900 
783 1 C 24.151479 9.424640 63.874900 
784 1 C 0.587321 15.774209 4.160333 
785 1 C 9.649779 13.000200 5.883233 
786 1 C 0.755720 5.445910 67.241000 
787 1 C 13.157521 13.404546 52.756600 