ITEM: TIMESTEP
100000
ITEM: NUMBER OF ATOMS
5023
ITEM: BOX BOUNDS pp pp pp
5.6445319760184631e-01 6.3926857802400392e+01
6.4346702803295130e-03 2.0493852329721129e+01
-3.6760817876563934e-02 2.0531623817876270e+01
ITEM: ATOMS id type element xu yu zu
1 1 C 62.987 20.3967 12.3117
2 1 C 52.7506 21.7821 4.63471
3 1 C 54.5602 2.73645 7.75026
4 1 C 47.7635 7.33978 15.3819
5 1 C 66.6849 12.2021 7.32713
6 1 C 65.5776 22.6805 24.2499
7 1 C 62.8918 19.7558 41.3031
8 1 C 42.8304 4.4006 -0.866975
9 1 C 47.6132 24.7149 -10.1934
10 1 C 54.8731 54.9728 22.5976
11 1 C 38.6873 2.90795 15.0519
12 1 C 57.9359 1.34715 24.3155
13 1 C 51.8248 1.94804 20.2066
14 1 C 66.2513 10.2664 9.81604
15 1 C 49.4214 19.7163 22.6959
16 1 C 68.6061 -3.16694 -5.76217
17 1 C 52.6079 7.77642 16.2204
18 1 C 39.9824 8.71451 0.984623
19 1 C 51.2729 8.94259 -11.1907
20 1 C 61.4072 -11.0641 -2.24213
21 1 C 44.8858 24.3684 0.895153
22 1 C 49.0932 36.6965 22.4387
23 1 C 49.4447 -9.85046 -1.74251
24 1 C 58.8467 41.0856 10.4744
25 1 C 54.7225 16.9173 13.8199
26 1 C 48.2842 10.4412 -6.46642
27 1 C 55.4544 27.717 28.1018
28 1 C 48.4607 12.8618 31.8621
29 1 C 47.1943 0.67119 35.8716
30 1 C 66.6273 -1.96565 32.4077
31 1 C 44.0467 0.215788 4.55758
32 1 C 53.4779 -22.5515 14.6474
33 1 C 41.5426 5.62132 17.9566
34 1 C 37.2173 4.61957 -9.82491
35 1 C 61.9328 1.91423 27.0207
36 1 C 59.2058 28.8796 19.4239
37 1 C 42.7165 -20.0082 15.9134
38 1 C 46.6755 9.12358 18.8103
39 1 C 58.3529 2.76534 -9.76537
40 1 C 57.0962 -0.635123 0.11802
41 1 C 65.8367 24.7236 5.46117
42 1 C 68.6328 13.9538 24.9469
43 1 C 61.5823 21.3507 -30.1092
44 1 C 63.02 9.90504 29.4952
45 1 C 55.222 16.3951 2.56229
46 1 C 54.2508 -26.1055 14.4648
47 1 C 51.65 -18.5258 15.3841
48 1 C 66.9687 5.42642 6.12256
49 1 C 38.9256 5.20283 2.1313
50 1 C 67.5847 -1.349 1.64565
51 1 C 66.4457 13.2821 12.7097
52 1 C 63.6506 16.3702 13.2251
53 1 C 54.424 16.9886 11.2762
54 1 C 61.6033 -6.89876 1.68018
55 1 C 36.8517 -8.75 -1.75562
56 1 C 60.4426 15.3801 3.40783
57 1 C 61.6981 21.3453 7.94251
58 1 C 46.3213 -8.88987 21.3508
59 1 C 53.0901 3.88631 12.9468
60 1 C 48.2607 3.50131 11.0977
61 1 C 40.6589 29.5797 12.6546
62 1 C 64.1619 16.8109 5.25696
63 1 C 49.1631 5.2114 1.87387
64 1 C 40.5866 4.12083 -3.29509
65 1 C 60.6591 33.6779 -6.60304
66 1 C 54.1944 -6.21355 8.12328
67 1 C 58.9611 -5.89583 20.8197
68 1 C 54.0744 11.983 43.5734
69 1 C 41.3264 24.076 7.48585
70 1 C 68.3356 4.73672 13.3765
71 1 C 47.6522 -24.269 -26.9049
72 1 C 45.7227 31.5384 51.7975
73 1 C 50.486 20.3651 4.17811
74 1 C 66.3541 -1.52764 38.8592
75 1 C 56.7822 33.082 22.9621
76 1 C 57.7082 -6.38966 29.0221
77 1 C 53.7437 4.99372 -13.0915
78 1 C 51.2498 14.7122 24.2047
79 1 C 67.2856 22.6879 -3.50985
80 1 C 38.8634 0.92141 34.56
81 1 C 58.6492 26.1213 -1.87296
82 1 C 48.712 3.75875 14.0839
83 1 C 55.8388 -9.51011 1.03389
84 1 C 47.0015 13.112 16.2417
85 1 C 65.3019 19.4451 10.2687
86 1 C 48.3692 1.06861 3.78893
87 1 C 45.9988 -0.797653 18.7636
88 1 C 64.9177 22.8752 22.9732
89 1 C 43.0811 19.9607 -16.6601
90 1 C 63.2363 1.95092 10.9196
91 1 C 67.0105 17.628 17.7766
92 1 C 55.1307 -1.66918 -15.7994
93 1 C 67.7367 4.63855 23.9624
94 1 C 50.6444 -10.1354 16.3273
95 1 C 65.6211 14.2245 -5.67205
96 1 C 46.8681 22.5021 22.4216
97 1 C 62.5333 11.4406 39.0458
98 1 C 50.1608 51.3992 0.481322
99 1 C 59.0852 -13.4286 6.83545
100 1 C 53.131 8.56575 26.6131
101 1 C 50.4713 28.2554 7.6028
102 1 C 45.8983 27.8844 -3.07541
103 1 C 51.5794 19.6331 24.5238
104 1 C 37.0991 20.872 6.42773
105 1 C 66.887 8.50516 18.8248
106 1 C 52.6608 4.21568 29.6427
107 1 C 45.2369 7.46256 6.51171
108 1 C 51.3189 31.715 11.0389
109 1 C 52.9989 21.8755 9.03005
110 1 C 40.7845 12.2407 14.3897
111 1 C 47.5816 21.4352 4.87788
112 1 C 62.584 -0.677964 24.3762
113 1 C 38.863 -3.59686 4.01353
114 1 C 67.6733 28.3607 -16.8376
115 1 C 50.0553 14.6974 12.1909
116 1 C 44.6531 23.714 12.0399
117 1 C 54.7389 18.8513 15.262
118 1 C 51.1112 14.4425 19.807
119 1 C 35.8029 22.398 26.6855
120 1 C 41.9807 3.83473 -6.23811
121 1 C 60.2015 19.7759 -3.14421
122 1 C 49.1589 27.9285 30.7954
123 1 C 38.3119 6.53733 18.8008
124 1 C 52.3174 15.4065 4.62047
125 1 C 60.874 19.7026 -7.43272
126 1 C 58.9734 24.4849 12.5555
127 1 C 43.5525 17.7163 -5.62234
128 1 C 61.6082 18.6203 -16.9537
129 1 C 63.4532 18.8247 13.7684
130 1 C 37.2437 2.27512 3.30197
131 1 C 51.5342 5.72011 17.1328
132 1 C 49.1801 5.29357 9.96898
133 1 C 58.0119 -9.02302 12.0615
134 1 C 49.3407 14.8853 30.4895
135 1 C 41.2328 0.181213 26.454
136 1 C 62.634 22.2616 5.23324
137 1 C 55.3814 24.3096 -0.967043
138 1 C 55.1461 -22.0974 19.5086
139 1 C 63.7349 0.456128 2.32123
140 1 C 54.194 45.1409 2.42704
141 1 C 39.8049 9.2762 20.1236
142 1 C 46.1381 19.5373 8.99027
143 1 C 41.5966 1.67942 11.4981
144 1 C 53.1062 13.6051 -7.61789
145 1 C 53.8167 4.44381 10.9849
146 1 C 40.5489 8.63774 9.84832
147 1 C 50.8949 9.15192 -4.40158
148 1 C 56.9707 23.5236 -6.49254
149 1 C 46.0248 20.7335 14.2371
150 1 C 48.0713 20.1689 -12.6376
151 1 C 44.3024 -15.1203 5.48573
152 1 C 37.7068 22.1423 25.005
153 1 C 40.3536 -1.04949 3.19078
154 1 C 66.942 8.81885 4.52051
155 1 C 54.7398 18.1202 6.65435
156 1 C 40.1914 9.82701 24.8265
157 1 C 59.7006 -0.0731908 12.9457
158 1 C 51.9885 19.4603 38.4505
159 1 C 37.1463 13.0217 -7.01989
160 1 C 36.0754 -0.0864802 21.276
161 1 C 62.135 6.47145 7.93795
162 1 C 69.2167 4.85425 -2.02348
163 1 C 60.0571 26.0986 18.8728
164 1 C 66.1347 27.8704 -4.29246
165 1 C 43.7048 9.9033 8.65454
166 1 C 66.6155 10.0104 26.8361
167 1 C 46.2458 15.9838 7.49126
168 1 C 65.2472 29.3121 -8.42287
169 1 C 55.0615 -18.1933 12.7637
170 1 C 53.3648 4.75864 17.2665
171 1 C 49.0959 2.49075 28.4873
172 1 C 58.4361 25.3427 4.05826
173 1 C 40.1756 -20.8804 -8.68903
174 1 C 52.8072 12.7795 23.3323
175 1 C 53.8351 -10.1351 8.9136
176 1 C 36.13 15.6241 2.72379
177 1 C 61.4944 28.4772 2.23135
178 1 C 64.7488 8.37893 4.87963
179 1 C 61.0871 1.97546 9.43256
180 1 C 37.3415 33.9102 2.0278
181 1 C 62.1365 21.1604 17.6932
182 1 C 57.4914 8.16886 0.348735
183 1 C 50.6785 -9.30159 34.9542
184 1 C 59.6822 42.3254 -7.62374
185 1 C 52.4 23.827 28.6974
186 1 C 55.8005 -0.488783 25.2376
187 1 C 33.7749 11.1829 12.0361
188 1 C 62.2311 -16.8439 13.2751
189 1 C 44.1961 13.4138 -4.59915
190 1 C 43.9429 -14.7526 -8.43823
191 1 C 63.4048 10.0443 -10.1894
192 1 C 65.0027 3.98691 11.1877
193 1 C 44.4504 7.94707 31.9697
194 1 C 38.747 1.2202 -3.45743
195 1 C 42.1542 30.1319 10.4973
196 1 C 41.7047 12.8611 3.6483
197 1 C 41.0288 12.9531 -1.16046
198 1 C 50.087 -0.930017 8.7186
199 1 C 42.2751 38.787 14.3741
200 1 C 37.7872 0.238506 19.6642
201 1 C 59.1041 -0.659111 32.2114
202 1 C 67.9326 15.0394 -13.392
203 1 C 47.5866 15.8315 9.76147
204 1 C 38.5747 11.5469 10.2712
205 1 C 47.068 -2.22878 11.9951
206 1 C 45.1795 -20.9579 9.55155
207 1 C 45.2663 34.7165 4.41188
208 1 C 37.7491 31.0286 20.6971
209 1 C 55.4918 -5.74079 -1.06035
210 1 C 54.9392 26.4274 12.2199
211 1 C 51.3238 -3.13291 6.48707
212 1 C 47.4935 7.34303 34.5456
213 1 C 45.5352 -2.34852 24.0712
214 1 C 67.3967 15.6635 21.2899
215 1 C 36.3379 19.8276 8.57189
216 1 C 55.1274 -8.23811 5.17569
217 1 C 40.5703 2.10381 18.7445
218 1 C 69.8493 20.3719 9.34533
219 1 C 68.575 24.17 7.4676
220 1 C 51.3862 14.5942 2.31293
221 1 C 39.6172 5.43745 -5.4335
222 1 C 47.5587 40.0995 2.30667
223 1 C 58.4941 19.746 13.8067
224 1 C 41.8892 1.82465 2.63511
225 1 C 50.5109 -20.9537 -2.77129
226 1 C 55.2035 5.49801 39.6131
227 1 C 56.6726 20.6481 13.5114
228 1 C 48.092 2.80653 -3.47112
229 1 C 50.1018 15.924 14.5246
230 1 C 40.6541 -9.47373 4.71161
231 1 C 37.2942 7.49105 -1.59563
232 1 C 45.8832 10.9532 -4.11387
233 1 C 64.8823 12.9293 26.3162
234 1 C 40.01 -14.336 1.93447
235 1 C 53.0453 9.30593 0.202695
236 1 C 65.0015 6.72144 9.75472
237 1 C 57.0849 3.37964 11.6123
238 1 C 36.434 8.71206 6.49147
239 1 C 38.2411 5.78153 10.1525
240 1 C 60.5504 0.300473 2.40784
241 1 C 52.7899 -15.0009 13.8118
242 1 C 52.4694 -12.3006 9.78888
243 1 C 66.4674 -13.6158 6.25819
244 1 C 53.5004 -14.3381 29.6585
245 1 C 49.4858 41.4673 6.39605
246 1 C 54.4092 39.4562 23.5459
247 1 C 38.1444 6.90039 20.9871
248 1 C 68.3216 8.8161 -4.31713
249 1 C 41.5693 18.4739 -12.0804
250 1 C 65.6525 -6.17159 1.62644
251 1 C 50.6421 21.3244 7.03993
252 1 C 54.2859 7.37813 16.3896
253 1 C 45.0222 12.298 13.1817
254 1 C 45.9198 -10.7639 31.8935
255 1 C 39.1936 -0.950844 28.2535
256 1 C 62.7365 41.8767 22.2481
257 1 C 63.2413 -19.0866 14.328
258 1 C 65.0636 12.7482 -10.451
259 1 C 51.9202 12.9775 -15.2098
260 1 C 51.0701 12.3114 34.3208
261 1 C 60.4136 6.32991 8.41006
262 1 C 38.2484 23.5906 9.2103
263 1 C 54.1071 9.79799 -0.710519
264 1 C 44.8207 -1.54469 16.4061
265 1 C 65.4568 18.0951 0.0393831
266 1 C 57.7814 22.2219 29.4488
267 1 C 65.0078 16.5646 7.60475
268 1 C 56.1265 15.0209 -11.5505
269 1 C 48.6568 -6.06332 24.8844
270 1 C 35.7952 7.16633 8.49187
271 1 C 51.0887 -0.476698 48.0432
272 1 C 38.6147 5.70532 4.70544
273 1 C 60.9487 3.74138 3.6653
274 1 C 59.289 3.04746 -11.8233
275 1 C 67.5138 42.3904 8.22197
276 1 C 62.9345 3.60474 29.2651
277 1 C 46.7591 2.83812 5.9376
278 1 C 59.4502 13.5713 19.9438
279 1 C 68.7697 4.20914 17.542
280 1 C 42.4805 7.45114 29.5342
281 1 C 57.8211 13.6291 33.895
282 1 C 65.6146 15.3599 -8.48657
283 1 C 41.5235 11.7802 7.03906
284 1 C 53.846 0.758522 20.3514
285 1 C 37.846 23.8408 -7.80772
286 1 C 41.2304 36.1493 34.4735
287 1 C 42.528 -13.3605 4.24287
288 1 C 37.8444 18.7302 14.858
289 1 C 43.8662 -2.0243 22.6023
290 1 C 63.9872 7.59807 23.8033
291 1 C 52.2091 17.7336 -19.9002
292 1 C 48.3322 7.57083 0.409574
293 1 C 59.9635 24.976 -15.0266
294 1 C 54.3172 -4.76105 5.68773
295 1 C 61.6382 23.6455 14.4299
296 1 C 55.8567 33.2725 9.06675
297 1 C 39.0984 4.49137 18.599
298 1 C 59.0069 -2.76816 18.3962
299 1 C 63.5214 24.0713 33.7698
300 1 C 50.6695 -34.266 -3.28362
301 1 C 42.0655 12.9843 6.45746
302 1 C 35.8624 -5.00107 12.9131
303 1 C 59.4036 -5.64564 6.73313
304 1 C 46.7823 15.0445 18.3659
305 1 C 53.2874 24.6655 20.8499
306 1 C 62.2943 20.9365 -6.15639
307 1 C 44.0028 27.4721 15.3725
308 1 C 50.2015 -2.2315 -3.36521
309 1 C 55.9154 -4.84935 15.6495
310 1 C 54.5521 -2.75003 9.46103
311 1 C 57.3957 4.46467 14.1085
312 1 C 65.5656 13.3361 13.9058
313 1 C 65.2585 1.32201 15.0976
314 1 C 65.6508 -2.21007 -9.82855
315 1 C 57.7253 12.1094 7.2595
316 1 C 55.8062 25.7113 8.91269
317 1 C 56.8743 -4.64363 22.6341
318 1 C 62.9738 17.5269 5.60246
319 1 C 68.5411 13.6176 17.9728
320 1 C 48.7452 -4.5469 -10.0791
321 1 C 55.3792 38.1699 21.1477
322 1 C 42.194 36.0879 6.15987
323 1 C 62.6166 8.58386 24.4579
324 1 C 46.8569 7.36373 -15.2734
325 1 C 44.7969 12.8499 26.6538
326 1 C 59.111 13.5902 -2.36826
327 1 C 63.2212 19.0869 -13.2915
328 1 C 66.3305 13.0096 26.9785
329 1 C 60.0163 32.7068 0.844799
330 1 C 46.4911 -6.8881 14.9218
331 1 C 50.5268 13.687 15.4486
332 1 C 67.6422 -7.92483 25.5776
333 1 C 42.0195 3.12841 -10.086
334 1 C 52.5582 8.95331 -7.47038
335 1 C 40.471 24.2451 32.7744
336 1 C 59.8942 6.55798 10.8405
337 1 C 35.1609 6.45015 18.8457
338 1 C 53.7899 40.8526 22.6632
339 1 C 47.7799 14.7726 23.955
340 1 C 54.9738 16.3042 0.829714
341 1 C 46.1208 11.9101 18.9988
342 1 C 47.4216 15.6355 15.2669
343 1 C 38.5626 -1.88028 2.46882
344 1 C 57.2646 19.357 6.08899
345 1 C 50 12.6496 9.68303
346 1 C 48.3383 12.9749 -2.74049
347 1 C 64.9292 -10.7817 30.7604
348 1 C 54.2627 -11.652 -2.10847
349 1 C 68.5343 10.3631 -6.22034
350 1 C 47.9012 6.41284 8.64335
351 1 C 56.271 8.17509 -0.858993
352 1 C 55.3553 -3.55215 -5.29013
353 1 C 42.2513 11.5963 34.6181
354 1 C 45.4385 -5.49385 9.29624
355 1 C 58.3376 7.31561 20.213
356 1 C 40.469 7.10919 -0.581923
357 1 C 49.8904 -4.80969 17.1347
358 1 C 65.0744 19.7797 0.309563
359 1 C 60.7435 0.185108 35.9651
360 1 C 47.973 -6.47033 -4.75782
361 1 C 65.534 5.82509 17.6987
362 1 C 63.3026 24.5637 -3.86752
363 1 C 57.1964 1.50745 37.7663
364 1 C 65.7792 6.48994 4.13317
365 1 C 65.3231 15.5067 -6.1165
366 1 C 66.4 2.68028 22.0433
367 1 C 62.686 -7.93409 46.24
368 1 C 56.1548 1.89014 16.3739
369 1 C 65.8458 3.89592 -10.3477
370 1 C 46.7833 -1.70907 -5.03407
371 1 C 53.1621 7.51569 2.84009
372 1 C 68.5781 15.7263 -4.16357
373 1 C 38.384 6.22063 17.3887
374 1 C 61.629 19.978 1.21098
375 1 C 60.2598 29.9914 29.9921
376 1 C 60.8601 3.27157 27.3918
377 1 C 54.9116 -9.84697 15.0705
378 1 C 52.1498 16.2424 6.81809
379 1 C 55.3122 3.05443 0.156591
380 1 C 46.1682 22.0887 -4.81081
381 1 C 63.9259 -8.16981 -2.58965
382 1 C 50.852 30.2242 45.6562
383 1 C 46.3375 13.6236 30.3676
384 1 C 55.6428 17.6842 5.67056
385 1 C 59.2884 12.8229 16.3805
386 1 C 68.2501 -10.1947 21.5287
387 1 C 61.9922 -9.53816 22.0893
388 1 C 42.1025 7.52725 23.4185
389 1 C 63.9445 -11.0235 7.16682
390 1 C 60.4093 30.6834 16.2853
391 1 C 38.7028 -7.61618 16.1148
392 1 C 68.8252 20.513 4.18521
393 1 C 59.5806 -9.55935 15.2055
394 1 C 53.4299 -2.4581 23.3671
395 1 C 54.7546 22.8971 26.0946
396 1 C 52.1946 30.0837 43.7005
397 1 C 62.9487 12.8856 27.5277
398 1 C 57.4889 17.9239 13.8674
399 1 C 60.5958 -9.27195 1.50958
400 1 C 46.0532 24.3424 9.93308
401 1 C 62.2574 16.2862 33.1571
402 1 C 63.0163 15.7815 8.10456
403 1 C 45.7301 -3.21943 40.1878
404 1 C 65.7582 15.4719 8.46445
405 1 C 61.6636 10.9701 -13.2055
406 1 C 49.9181 28.7404 41.1642
407 1 C 64.8635 8.05427 28.7571
408 1 C 41.9621 8.41513 -2.48805
409 1 C 42.4991 5.1606 8.42205
410 1 C 55.7424 7.94845 47.6198
411 1 C 60.1853 -1.93215 34.4754
412 1 C 68.1095 -22.4562 0.357625
413 1 C 68.2733 13.9082 11.2046
414 1 C 46.7063 -1.13279 3.27021
415 1 C 67.9406 20.385 14.9683
416 1 C 38.2566 13.472 4.98918
417 1 C 62.9923 0.473466 -21.185
418 1 C 57.3783 12.528 20.3358
419 1 C 56.3098 20.9335 19.1637
420 1 C 38.9088 22.0916 5.20798
421 1 C 61.4078 1.15411 15.8776
422 1 C 68.3703 12.2299 6.08606
423 1 C 44.2249 -2.83957 10.734
424 1 C 60.2158 11.7704 3.10758
425 1 C 58.3683 -0.565748 5.74105
426 1 C 69.7011 19.887 3.29312
427 1 C 52.6579 7.19778 22.1339
428 1 C 48.6934 10.5031 -0.395837
429 1 C 55.9659 5.88069 33.7553
430 1 C 51.755 -5.18273 -14.7341
431 1 C 56.4407 32.8197 32.9607
432 1 C 38.6163 2.94045 19.1408
433 1 C 57.9873 -2.82459 35.868
434 1 C 41.578 -14.92 1.54124
435 1 C 57.8806 -8.81956 26.5712
436 1 C 51.5696 16.0758 22.0546
437 1 C 55.3592 40.5959 -2.16226
438 1 C 54.908 1.64912 16.9778
439 1 C 54.002 5.90232 0.700445
440 1 C 60.7951 -28.7342 9.58641
441 1 C 60.208 13.2187 22.8569
442 1 C 61.7329 -6.69823 -7.66745
443 1 C 38.1185 8.63635 -3.45849
444 1 C 50.3184 8.99708 43.0472
445 1 C 59.8917 -13.3311 24.2046
446 1 C 61.2312 -11.8317 24.9586
447 1 C 45.0489 18.253 20.6012
448 1 C 46.3743 14.8572 14.6844
449 1 C 49.4709 6.60382 22.6836
450 1 C 49.6952 -20.7413 15.4501
451 1 C 43.6829 2.07959 -15.5024
452 1 C 64.9255 5.25061 12.1014
453 1 C 51.9345 -6.53211 6.40078
454 1 C 49.2064 13.0917 4.55542
455 1 C 57.6261 9.50369 31.0481
456 1 C 44.9012 12.688 8.64871
457 1 C 63.6773 16.4835 0.758499
458 1 C 37.2685 -5.97941 25.4809
459 1 C 57.6784 13.4951 7.09068
460 1 C 69.0216 19.429 10.1511
461 1 C 67.5561 13.0951 -8.68525
462 1 C 44.6047 24.5923 5.36886
463 1 C 42.4545 6.3146 18.5421
464 1 C 40.4484 14.1982 28.5711
465 1 C 39.9729 5.21897 6.58635
466 1 C 46.4036 22.277 10.5748
467 1 C 58.9903 11.8052 10.946
468 1 C 68.2521 -1.93118 16.4273
469 1 C 52.8821 21.0426 13.8154
470 1 C 56.8227 16.3168 18.7277
471 1 C 65.8671 36.4383 -10.5857
472 1 C 67.8457 -20.9296 4.96108
473 1 C 65.8417 -21.2008 36.9786
474 1 C 49.7435 2.0919 11.3913
475 1 C 53.9013 0.382217 11.756
476 1 C 39.6536 8.52562 17.7455
477 1 C 44.4461 -0.697911 -8.58092
478 1 C 65.8102 -3.04402 -5.02028
479 1 C 49.6591 26.7459 30.8637
480 1 C 52.2067 20.8159 3.46756
481 1 C 42.6882 0.159976 8.30816
482 1 C 47.6315 8.26233 22.4416
483 1 C 47.4459 -11.2307 17.0242
484 1 C 66.158 25.6356 4.19445
485 1 C 47.8179 16.0525 5.97567
486 1 C 66.4623 4.0071 18.2884
487 1 C 44.8084 17.0742 12.1243
488 1 C 46.7254 26.534 21.7299
489 1 C 35.3473 2.86001 -5.06953
490 1 C 64.9068 19.1483 -2.04761
491 1 C 37.0122 -17.5528 37.7807
492 1 C 55.2446 16.3454 8.76893
493 1 C 37.9582 19.0563 -2.5714
494 1 C 45.7931 -16.7235 16.8697
495 1 C 50.5547 23.7709 12.0612
496 1 C 60.6933 11.5303 4.83781
497 1 C 53.0608 19.5588 16.9797
498 1 C 42.1057 -5.93977 17.7969
499 1 C 45.3008 3.42258 3.31888
500 1 C 54.4072 17.9816 -1.83254
501 1 C 61.5141 -4.36916 -13.9382
502 1 C 50.6892 8.15747 34.7809
503 1 C 53.9859 -13.6482 -10.5586
504 1 C 43.0302 9.39768 13.8924
505 1 C 68.4151 20.5988 11.2657
506 1 C 42.0918 14.2207 16.0964
507 1 C 64.7256 -16.3929 0.318308
508 1 C 52.8184 13.7391 0.86333
509 1 C 35.4389 11.4261 13.7013
510 1 C 41.944 8.88291 23.0906
511 1 C 66.378 13.2541 0.368586
512 1 C 59.1465 0.549564 -11.4434
513 1 C 51.3983 6.85052 28.1942
514 1 C 38.0743 0.185797 16.3198
515 1 C 45.7955 20.698 20.9278
516 1 C 42.4332 8.28897 -3.85695
517 1 C 57.1495 31.177 15.7354
518 1 C 63.3958 26.3421 32.7323
519 1 C 39.6252 39.1218 26.1506
520 1 C 63.6589 24.5673 -16.2727
521 1 C 50.9672 -15.7438 24.3302
522 1 C 58.6049 4.43664 26.369
523 1 C 44.3771 1.64718 40.4917
524 1 C 44.2742 35.8192 23.1108
525 1 C 57.3773 18.3129 10.6161
526 1 C 64.7441 13.8222 10.8278
527 1 C 48.4762 19.6579 27.4008
528 1 C 53.4879 13.0702 29.4304
529 1 C 45.3919 -9.8552 21.3571
530 1 C 39.9711 18.033 20.2707
531 1 C 49.1649 -2.46743 -4.09305
532 1 C 49.1247 10.9867 16.5969
533 1 C 67.8183 -3.99759 -8.68192
534 1 C 53.2059 15.7211 18.6818
535 1 C 35.2023 1.16424 -6.76017
536 1 C 61.6154 15.8551 7.96365
537 1 C 44.9663 17.9669 35.8528
538 1 C 47.074 10.6295 -13.8732
539 1 C 65.9002 -2.60132 13.6168
540 1 C 62.4732 18.2812 15.1334
541 1 C 61.1973 26.6395 -25.9974
542 1 C 41.1565 24.8539 3.56204
543 1 C 52.779 26.4229 35.7015
544 1 C 64.9029 3.67333 4.50533
545 1 C 51.3766 10.4973 23.6578
546 1 C 43.0545 5.14204 -17.343
547 1 C 48.6975 37.4165 4.89859
548 1 C 47.4216 3.7764 27.6119
549 1 C 45.4012 9.81079 -1.44165
550 1 C 37.3506 -14.7955 2.98241
551 1 C 68.6055 25.6147 16.2695
552 1 C 66.3925 0.188016 3.33876
553 1 C 36.7502 16.8169 13.5348
554 1 C 48.3981 2.13203 9.22289
555 1 C 51.3305 20.4068 29.0216
556 1 C 41.7218 23.9414 -0.599688
557 1 C 36.1512 -7.30047 -3.52796
558 1 C 41.1443 12.3527 11.2462
559 1 C 46.2718 12.2905 6.17487
560 1 C 67.7213 33.3855 -1.68633
561 1 C 36.8583 -2.66712 15.8482
562 1 C 64.7534 24.8672 -0.990586
563 1 C 35.9186 -7.95077 -0.615541
564 1 C 45.9098 -16.9446 14.1674
565 1 C 47.7436 -12.2815 11.8617
566 1 C 56.4908 16.3941 3.25859
567 1 C 43.6859 2.68117 13.025
568 1 C 50.9431 23.1121 3.48433
569 1 C 40.5296 -0.5207 -20.0225
570 1 C 65.1142 1.20831 29.9653
571 1 C 46.3888 -4.57941 10.1808
572 1 C 37.6428 9.98918 2.44812
573 1 C 62.51 -8.96365 12.8353
574 1 C 63.1805 21.9746 17.3764
575 1 C 52.6776 17.7747 10.134
576 1 C 64.2156 14.522 1.95099
577 1 C 45.2041 2.73896 -2.60248
578 1 C 36.3145 9.38156 18.4096
579 1 C 58.8123 22.0646 7.1596
580 1 C 39.7055 -0.988419 -18.8344
581 1 C 69.5117 17.9284 -15.5828
582 1 C 67.0834 17.2816 7.35982
583 1 C 44.6949 8.89126 -11.6056
584 1 C 51.481 5.86794 3.0838
585 1 C 35.5224 19.7892 22.5074
586 1 C 40.7867 1.52043 8.67871
587 1 C 40.4997 10.5158 -12.0344
588 1 C 54.0792 17.0559 36.9326
589 1 C 44.4829 -3.96559 20.2429
590 1 C 50.1864 3.57535 18.2579
591 1 C 67.4959 13.3188 15.6614
592 1 C 67.5707 23.5864 4.96044
593 1 C 34.6132 1.51588 -9.6815
594 1 C 61.3963 11.8341 39.682
595 1 C 56.2233 24.5578 4.83495
596 1 C 61.8734 11.6571 34.7197
597 1 C 39.2006 1.12836 27.1345
598 1 C 64.2602 -8.21505 -4.86018
599 1 C 56.3163 9.65793 -20.922
600 1 C 38.3498 8.5594 4.76664
601 1 C 48.3898 5.11817 29.6097
602 1 C 46.3719 17.0516 22.5057
603 1 C 59.6612 19.8167 3.75118
604 1 C 67.5607 9.36425 1.81555
605 1 C 48.5623 33.7271 13.629
606 1 C 68.1752 -5.12805 23.3389
607 1 C 40.3171 1.36603 32.3077
608 1 C 66.7886 -32.5122 10.2168
609 1 C 36.9166 -21.4862 6.84809
610 1 C 50.786 2.34706 0.248421
611 1 C 58.7118 18.0319 7.97863
612 1 C 56.8104 13.9848 -8.17068
613 1 C 50.0806 24.652 -6.54402
614 1 C 64.7603 -0.23378 19.4613
615 1 C 56.2165 -17.3941 22.9931
616 1 C 66.3675 11.3685 4.4309
617 1 C 43.9888 10.6591 7.57522
618 1 C 54.4173 29.0897 14.9141
619 1 C 48.1149 -22.0906 18.988
620 1 C 38.8144 21.4835 -0.268741
621 1 C 58.8594 30.0461 9.63511
622 1 C 63.8601 22.6116 -14.3145
623 1 C 43.9198 11.4452 19.7344
624 1 C 44.2951 23.9051 -12.4916
625 1 C 36.4338 1.30275 2.56141
626 1 C 68.4996 31.0132 4.30194
627 1 C 40.5641 -2.72841 18.7212
628 1 C 50.1476 8.75346 -8.94868
629 1 C 68.298 12.4674 -4.20587
630 1 C 58.3446 19.4766 24.772
631 1 C 45.4053 10.0621 22.7566
632 1 C 51.9028 3.73927 24.4885
633 1 C 56.9723 12.5795 30.7044
634 1 C 56.9533 5.49992 12.1602
635 1 C 53.0922 10.9874 26.2471
636 1 C 53.4435 16.9186 42.3477
637 1 C 64.3831 17.7485 11.612
638 1 C 43.9329 -6.25626 25.2813
639 1 C 58.385 8.74003 -11.8549
640 1 C 45.9336 3.54959 -15.3544
641 1 C 43.4135 1.6509 -6.4509
642 1 C 51.718 23.5129 1.27341
643 1 C 37.4448 10.0731 14.6825
644 1 C 55.3514 21.6376 7.6958
645 1 C 43.9501 3.55075 -1.14814
646 1 C 45.3276 0.808714 25.5416
647 1 C 45.4829 12.8284 1.0526
648 1 C 56.7418 8.6389 3.12317
649 1 C 52.4138 6.73938 5.00133
650 1 C 61.9306 -9.91354 23.7583
651 1 C 51.486 3.57383 37.8321
652 1 C 40.9978 -1.24992 39.3204
653 1 C 55.6985 9.21139 17.1217
654 1 C 40.0322 -2.48609 13.8187
655 1 C 44.8968 37.2505 23.3698
656 1 C 64.0761 5.02255 22.8304
657 1 C 63.5909 17.7488 -1.12106
658 1 C 60.832 20.7931 26.3727
659 1 C 63.4335 12.0124 11.7141
660 1 C 50.8607 2.97155 26.7256
661 1 C 46.197 1.00833 24.5468
662 1 C 49.2176 3.07404 16.0269
663 1 C 41.5167 27.1808 15.6424
664 1 C 50.086 11.461 6.02275
665 1 C 47.4155 -10.8893 40.5332
666 1 C 65.8984 21.0173 22.349
667 1 C 39.7982 7.61355 13.4526
668 1 C 63.769 9.85503 1.76814
669 1 C 43.3053 5.23641 -5.79367
670 1 C 58.177 4.20645 16.248
671 1 C 57.1733 18.4038 49.1041
672 1 C 57.7565 45.8872 22.4925
673 1 C 69.3923 1.09413 11.9143
674 1 C 53.3573 32.4337 -8.66537
675 1 C 53.4577 2.75361 -9.89355
676 1 C 39.7834 4.61943 21.0779
677 1 C 66.4324 12.5453 -3.01475
678 1 C 55.4589 5.57557 -5.24785
679 1 C 65.5766 40.4985 27.984
680 1 C 37.0936 -4.77844 4.30455
681 1 C 41.8841 10.6226 6.35684
682 1 C 52.5637 -13.72 -7.75757
683 1 C 42.1197 21.2907 13.581
684 1 C 51.765 14.2798 -5.71689
685 1 C 56.5209 2.58832 12.749
686 1 C 58.9646 6.51009 17.309
687 1 C 40.0897 0.771776 17.6905
688 1 C 51.9844 9.40819 -0.519294
689 1 C 51.9033 -3.65508 16.5542
690 1 C 49.6054 7.29491 17.8589
691 1 C 63.7137 37.3914 -4.22234
692 1 C 61.481 3.19841 9.59585
693 1 C 55.211 12.323 27.2414
694 1 C 65.7563 23.1819 33.7525
695 1 C 44.4481 26.1075 7.88365
696 1 C 61.5631 10.4178 31.6875
697 1 C 40.8649 22.5589 1.16913
698 1 C 53.3658 12.0836 27.3068
699 1 C 35.1651 -6.17651 16.8827
700 1 C 41.1888 5.38129 4.96904
701 1 C 40.2662 7.17828 23.6764
702 1 C 41.5281 2.0529 4.94292
703 1 C 62.0534 2.93489 20.8305
704 1 C 43.3387 -17.5359 4.0259
705 1 C 66.6484 18.8903 14.4404
706 1 C 65.569 -14.2659 11.3071
707 1 C 50.0245 4.46709 -12.2316
708 1 C 59.9971 22.8896 28.229
709 1 C 52.7762 27.0959 11.4239
710 1 C 52.9705 14.1814 16.0773
711 1 C 66.8029 0.275959 8.8125
712 1 C 60.6209 19.3333 20.5312
713 1 C 51.5766 -10.313 7.18205
714 1 C 58.4547 -1.66728 -7.75218
715 1 C 46.79 26.5684 8.45577
716 1 C 46.0852 -2.94289 13.1485
717 1 C 51.1779 16.6647 0.329526
718 1 C 53.9852 39.4593 12.8797
719 1 C 59.0835 16.0073 20.225
720 1 C 47.3261 13.7492 -23.5132
721 1 C 62.3658 10.5813 20.9123
722 1 C 53.0941 -11.5227 15.0994
723 1 C 40.8513 -3.1969 7.3661
724 1 C 58.1748 -19.0258 14.3561
725 1 C 48.5453 27.0324 7.39939
726 1 C 67.7763 9.72721 15.2957
727 1 C 67.2517 15.9315 7.96159
728 1 C 61.6098 33.0159 7.63177
729 1 C 69.1181 0.719935 8.33915
730 1 C 54.3922 22.3084 23.724
731 1 C 65.9185 -6.43071 11.6562
732 1 C 70.1026 22.5468 11.1541
733 1 C 66.8271 17.0387 6.12141
734 1 C 66.7253 12.3584 14.6118
735 1 C 68.257 12.1926 9.76486
736 1 C 54.8666 15.4862 12.8172
737 1 C 48.4674 0.748593 14.885
738 1 C 59.4205 17.5441 25.1274
739 1 C 60.1549 -25.0506 2.28121
740 1 C 36.4123 -3.62802 -2.5178
741 1 C 45.9272 -15.1779 24.0245
742 1 C 40.2228 39.2094 8.11677
743 1 C 59.9317 16.7223 9.58362
744 1 C 48.5341 -3.85653 11.8185
745 1 C 42.9808 20.8201 21.8632
746 1 C 52.5131 18.4951 7.97135
747 1 C 45.3282 14.2231 2.80276
748 1 C 45.3123 3.72615 -0.663379
749 1 C 58.9471 35.156 -7.30812
750 1 C 61.9092 13.7123 20.2465
751 1 C 58.5637 7.00169 23.5526
752 1 C 38.417 11.3238 2.6682
753 1 C 56.706 18.3127 -1.24504
754 1 C 44.5286 15.2032 -2.05463
755 1 C 52.3659 0.854618 16.9705
756 1 C 64.7898 26.8158 41.1928
757 1 C 58.1103 4.53737 8.99888
758 1 C 34.2072 25.6342 14.4552
759 1 C 58.1921 -10.6578 12.0658
760 1 C 63.5969 -0.627636 16.089
761 1 C 38.3172 4.59557 -0.00292025
762 1 C 56.0552 -5.3169 -2.82259
763 1 C 62.1339 5.4347 26.6878
764 1 C 42.9866 13.2053 18.0774
765 1 C 37.5977 -17.4012 7.12758
766 1 C 34.5262 6.76709 12.7859
767 1 C 36.5217 35.5631 8.87378
768 1 C 64.5389 10.8257 18.9513
769 1 C 48.4461 15.7603 13.858
770 1 C 55.8672 1.42589 10.6294
771 1 C 43.8229 15.4186 1.31062
772 1 C 62.7699 -8.19937 20.1203
773 1 C 48.4508 33.8812 19.2682
774 1 C 59.9529 14.4071 9.29877
775 1 C 62.693 9.36878 -0.471485
776 1 C 67.5989 16.2084 -4.91567
777 1 C 40.2679 17.9016 11.2986
778 1 C 69.4409 6.16248 16.8865
779 1 C 39.5951 2.22155 40.4037
780 1 C 44.8829 27.8091 9.30722
781 1 C 40.1298 -0.275926 5.46919
782 1 C 67.2266 -0.932176 -12.694
783 1 C 44.7631 19.2936 2.04838
784 1 C 67.8618 11.554 13.6222
785 1 C 48.0408 34.3016 21.393
786 1 C 43.2362 -7.42033 -10.0457
787 1 C 52.5558 20.2184 26.5002
788 1 C 67.1963 24.1399 17.1892
789 1 C 65.8762 11.4318 -18.9612
790 1 C 60.3508 35.3841 18.1282
791 1 C 50.1486 39.6553 0.883929
792 1 C 35.243 5.92505 -5.47648
793 1 C 51.7841 38.8979 -1.55315
794 1 C 66.5197 6.92818 13.3881
795 1 C 40.6535 -7.35514 10.1819
796 1 C 42.2823 17.8759 12.7681
797 1 C 35.8942 7.4836 1.02753
798 1 C 45.9903 -10.4172 14.5968
799 1 C 55.0249 3.2638 9.0102
800 1 C 43.7769 18.85 20.5093
801 1 C 43.6144 9.48304 17.7025
802 1 C 58.5064 17.045 23.8654
803 1 C 44.7829 21.6812 7.10208
804 1 C 48.87 16.519 27.562
805 1 C 62.8291 -14.9433 10.4478
806 1 C 51.1033 -3.91093 -11.6934
807 1 C 41.2868 -17.591 -23.5296
808 1 C 56.0443 1.3295 6.49632
809 1 C 59.0216 48.2071 -10.4515
810 1 C 51.7362 11.8829 22.9726
811 1 C 38.931 7.72157 31.3275
812 1 C 54.36 31.8762 34.8069
813 1 C 64.8543 21.5132 12.6992
814 1 C 54.7099 -6.81629 10.5831
815 1 C 66.2625 19.2011 5.10977
816 1 C 46.8867 44.5981 1.84202
817 1 C 47.951 -16.4509 -7.76673
818 1 C 33.5834 24.8207 -5.17212
819 1 C 60.0333 42.1931 40.9874
820 1 C 66.157 5.22244 22.3898
821 1 C 52.6135 6.16329 24.348
822 1 C 67.7221 -2.19075 13.9368
823 1 C 55.4471 -6.99546 19.1295
824 1 C 45.5908 13.6608 20.1361
825 1 C 63.1306 16.3455 3.23504
826 1 C 42.6464 -19.0006 7.38591
827 1 C 55.1304 28.41 -0.857798
828 1 C 56.0981 30.5113 10.3933
829 1 C 45.4611 11.2866 15.0651
830 1 C 65.3661 27.8283 12.7898
831 1 C 54.3569 13.7698 18.1631
832 1 C 49.1082 -10.792 30.1813
833 1 C 53.8001 9.29064 11.7668
834 1 C 37.2637 14.6585 32.4167
835 1 C 38.1117 22.3364 1.17459
836 1 C 42.4103 4.50228 27.4701
837 1 C 50.9468 0.496831 36.0115
838 1 C 63.7111 -1.77195 5.7037
839 1 C 65.0126 22.359 -0.589409
840 1 C 55.1073 3.27743 18.3313
841 1 C 38.0211 10.0521 13.4363
842 1 C 62.3156 14.863 12.4097
843 1 C 38.9445 -3.14943 2.67448
844 1 C 67.4529 16.0751 -1.95029
845 1 C 61.3256 32.8834 17.8561
846 1 C 63.1731 12.0778 9.64379
847 1 C 42.7334 27.4755 20.8326
848 1 C 56.3385 28.4311 -8.18966
849 1 C 65.632 21.519 31.3234
850 1 C 47.6665 23.9926 3.13586
851 1 C 61.0003 -11.9237 1.19912
852 1 C 64.2189 14.3619 19.9664
853 1 C 36.1096 5.07446 33.3604
854 1 C 36.3602 24.3802 32.5707
855 1 C 35.3203 5.93453 12.0341
856 1 C 46.4774 -0.933408 -6.73323
857 1 C 46.5375 -0.219335 7.84315
858 1 C 60.9866 19.4672 9.85266
859 1 C 37.5419 3.36197 20.0447
860 1 C 49.4563 14.2549 27.341
861 1 C 57.5466 -7.38993 -5.67648
862 1 C 35.9608 10.7069 -5.73816
863 1 C 55.3416 28.7592 -4.55834
864 1 C 62.0457 25.2122 23.5122
865 1 C 63.6193 -13.8867 -16.3867
866 1 C 46.9251 4.20912 15.1929
867 1 C 48.6468 -1.97887 -10.3668
868 1 C 47.2882 24.9414 41.8162
869 1 C 41.1498 -25.0045 0.67393
870 1 C 53.5448 -2.07427 5.04834
871 1 C 58.8459 18.8463 -4.47149
872 1 C 42.5368 -8.26629 12.8589
873 1 C 42.7988 20.7775 23.3386
874 1 C 38.4486 -0.887491 -1.6309
875 1 C 49.4151 19.5023 -3.66202
876 1 C 56.541 14.1412 27.1166
877 1 C 47.8251 -10.5275 30.6581
878 1 C 50.9256 12.6989 17.4623
879 1 C 65.6598 16.406 3.75648
880 1 C 51.3203 39.1939 2.90826
881 1 C 54.5576 15.5716 32.0033
882 1 C 52.616 21.0707 19.5998
883 1 C 51.1142 -27.7882 10.3993
884 1 C 59.7901 12.1964 -7.57307
885 1 C 52.229 -3.9633 18.2748
886 1 C 42.0463 4.50252 2.18429
887 1 C 64.398 10.8125 7.49336
888 1 C 40.3303 14.0087 21.0331
889 1 C 67.7126 -17.8343 15.6193
890 1 C 46.9376 -9.88986 -8.31714
891 1 C 68.7425 39.0504 -14.8015
892 1 C 60.8848 7.68476 17.6121
893 1 C 55.7692 31.5662 -4.5526
894 1 C 60.6622 37.3749 20.5386
895 1 C 40.5436 15.3515 17.3567
896 1 C 56.9102 38.5859 5.79534
897 1 C 64.775 -1.5147 28.4428
898 1 C 69.5208 14.5433 -2.06553
899 1 C 47.1632 -2.41171 18.1601
900 1 C 47.5363 18.4587 0.943369
901 1 C 55.9318 2.74909 15.0559
902 1 C 56.0527 12.5023 20.7144
903 1 C 43.3208 10.186 0.216907
904 1 C 41.0075 16.2282 16.4449
905 1 C 70.3385 0.278272 22.9853
906 1 C 57.5358 -5.8154 31.8424
907 1 C 62.3837 30.738 -2.99654
908 1 C 59.0447 24.3712 -10.6975
909 1 C 37.25 37.3502 2.66125
910 1 C 48.4368 -14.1636 13.9188
911 1 C 57.9827 -7.96752 -1.5978
912 1 C 64.7047 9.14214 21.0979
913 1 C 54.4393 33.3865 -3.65617
914 1 C 52.8036 11.6128 -4.22322
915 1 C 56.9214 3.69343 7.2309
916 1 C 56.5138 10.6198 23.5588
917 1 C 44.1109 -5.18941 -10.9625
918 1 C 67.863 22.672 3.08084
919 1 C 48.3419 1.0309 -7.10876
920 1 C 58.2491 14.8926 -2.73351
921 1 C 59.3096 28.7856 -5.96347
922 1 C 55.3728 9.54932 14.3998
923 1 C 49.9348 19.4906 6.34785
924 1 C 55.9185 33.7159 1.45992
925 1 C 38.6963 7.58591 -11.2504
926 1 C 58.5995 5.38365 7.85284