ITEM: TIMESTEP
199980
ITEM: NUMBER OF ATOMS
3172
ITEM: BOX BOUNDS pp pp pp
3.527763 76.035404
-0.162437 19.603975
0.558422 19.494466
ITEM: ATOMS id type element x y z
1 1 C 45.125000 16.897300 9.862900 
2 1 C 68.798600 2.596680 12.246355 
3 1 C 73.076700 9.155912 10.311900 
4 1 C 5.032159 13.837492 1.117155 
5 1 C 59.453200 1.522288 11.945200 
6 1 C 60.922200 8.049270 17.117300 
7 1 C 56.249600 0.622912 6.669660 
8 1 C 55.417500 10.038900 6.372611 
9 1 C 51.410700 7.685610 3.641155 
10 1 C 3.933559 0.008991 3.050755 
11 1 C 45.386300 6.820470 6.003455 
12 1 C 46.393600 9.464712 4.988611 
13 1 C 55.144700 8.376912 6.177655 
14 1 C 42.954400 10.460900 10.130805 
15 1 C 11.019959 15.981400 5.670310 
16 1 C 49.505300 3.021288 15.230895 
17 1 C 64.352300 14.801712 15.466200 
18 1 C 74.722900 16.586500 10.763400 
19 1 C 12.909159 8.503040 17.749065 
20 1 C 64.833700 7.044450 11.395589 
21 1 C 40.816000 10.126200 15.927035 
22 1 C 5.953759 9.416412 11.499000 
23 1 C 75.323200 16.115652 4.304450 
24 1 C 66.061600 8.140750 19.035100 
25 1 C 7.439159 14.280000 4.742355 
26 1 C 75.474000 19.415224 12.204555 
27 1 C 69.540500 1.504930 5.474130 
28 1 C 56.159100 11.947688 1.776711 
29 1 C 57.378600 5.901060 9.016100 
30 1 C 59.069800 17.927700 13.453889 
31 1 C 74.606500 5.737630 2.425260 
32 1 C 55.054700 11.312000 5.532955 
33 1 C 42.965900 11.462488 16.219900 
34 1 C 53.218500 14.015700 8.532550 
35 1 C 70.145800 3.108688 15.029255 
36 1 C 48.190700 15.481424 5.647845 
37 1 C 71.433700 18.108588 15.942034 
38 1 C 72.240900 9.115288 5.740190 
39 1 C 63.423500 6.021790 2.842050 
40 1 C 59.446900 14.261312 13.328800 
41 1 C 56.355400 0.713588 3.973500 
42 1 C 62.490000 8.143988 6.065880 
43 1 C 62.893100 5.900176 5.310645 
44 1 C 64.580900 13.401924 10.092655 
45 1 C 75.793800 6.296276 4.993420 
46 1 C 59.088600 13.491192 17.682600 
47 1 C 11.603759 9.009288 2.701445 
48 1 C 52.600500 6.166288 11.098455 
49 1 C 5.844859 18.805321 16.220500 
50 1 C 5.245159 18.665588 12.217200 
51 1 C 12.661659 17.003200 11.314415 
52 1 C 13.755059 11.532200 8.506160 
53 1 C 61.830800 14.167862 9.991010 
54 1 C 51.584300 3.928690 4.418011 
55 1 C 62.710400 16.163900 8.434610 
56 1 C 10.748559 11.334000 3.102445 
57 1 C 64.813700 8.159620 16.610689 
58 1 C 7.686259 12.388200 6.283545 
59 1 C 66.663000 6.527650 5.715240 
60 1 C 58.936000 17.482424 11.073495 
61 1 C 75.923200 0.751788 18.363300 
62 1 C 56.792000 13.610032 13.310255 
63 1 C 62.421400 6.505620 6.726630 
64 1 C 50.789900 18.820340 2.324055 
65 1 C 4.398759 1.719940 10.709089 
66 1 C 58.299700 15.982552 3.278580 
67 1 C 61.109700 3.041712 6.949330 
68 1 C 65.139200 8.115640 3.578860 
69 1 C 75.648500 1.032112 16.862055 
70 1 C 71.441700 3.306610 11.577055 
71 1 C 12.954059 14.011202 15.141565 
72 1 C 56.797600 0.560217 9.749775 
73 1 C 69.008000 17.739688 14.504255 
74 1 C 54.498300 10.366312 7.656455 
75 1 C 60.084800 1.572588 18.395100 
76 1 C 72.635700 7.780840 5.966350 
77 1 C 5.547359 5.680812 13.657200 
78 1 C 53.051800 0.040788 13.400085 
79 1 C 8.132159 1.471850 13.200400 
80 1 C 67.947200 15.442652 15.861500 
81 1 C 5.186659 18.338102 9.348855 
82 1 C 70.644700 6.565812 10.092745 
83 1 C 72.995600 19.491800 4.931445 
84 1 C 63.948600 4.699412 10.936565 
85 1 C 58.485500 0.956102 11.195100 
86 1 C 50.054300 5.876488 19.038900 
87 1 C 13.083059 4.413960 0.956911 
88 1 C 65.208600 9.592488 6.894330 
89 1 C 65.969700 0.675488 17.487289 
90 1 C 73.147900 2.617480 12.725435 
91 1 C 44.520900 13.073600 9.642950 
92 1 C 60.241300 12.369832 9.260115 
93 1 C 54.251000 18.640102 19.435400 
94 1 C 6.010859 15.949492 3.435155 
95 1 C 50.526000 17.022462 8.423880 
96 1 C 48.710100 3.513588 11.621300 
97 1 C 11.363159 11.108200 5.785680 
98 1 C 9.932759 6.732788 11.908200 
99 1 C 51.449600 15.272132 5.669645 
100 1 C 7.189659 5.267388 15.546500 
101 1 C 52.829200 1.813440 6.592960 
102 1 C 59.355400 4.686580 1.442511 
103 1 C 73.412300 12.549400 9.319685 
104 1 C 68.689800 13.124800 19.162907 
105 1 C 68.973400 6.199050 12.561455 
106 1 C 72.552100 4.259050 2.404100 
107 1 C 44.941200 6.770770 15.650565 
108 1 C 5.661659 14.925900 9.106855 
109 1 C 60.580800 2.491088 3.771010 
110 1 C 46.571900 4.868188 7.447130 
111 1 C 7.274559 18.520300 1.588240 
112 1 C 69.426300 16.037742 6.797645 
113 1 C 72.549300 4.613288 14.661115 
114 1 C 44.959600 16.069602 15.884565 
115 1 C 44.559300 13.309400 16.109555 
116 1 C 44.041300 4.219040 12.637600 
117 1 C 50.018700 2.231888 5.124850 
118 1 C 64.992500 2.641788 5.268850 
119 1 C 64.220300 8.550050 1.730255 
120 1 C 72.300200 3.065488 18.192744 
121 1 C 45.361900 14.371262 4.527755 
122 1 C 11.692959 18.002288 17.344955 
123 1 C 58.198200 13.852500 13.275300 
124 1 C 73.000300 10.722892 7.109240 
125 1 C 49.576300 13.911792 11.136500 
126 1 C 56.195600 14.367100 10.144000 
127 1 C 62.777800 9.014920 14.250075 
128 1 C 56.362100 0.598412 17.811325 
129 1 C 73.205500 2.498850 7.460140 
130 1 C 62.418400 16.419900 1.627855 
131 1 C 7.576459 1.731088 6.304410 
132 1 C 62.741200 4.576012 5.926455 
133 1 C 55.083100 3.665212 15.956400 
134 1 C 9.134659 2.674000 3.748055 
135 1 C 70.686800 8.956270 8.708480 
136 1 C 48.351100 1.664770 18.658100 
137 1 C 10.870459 17.121288 5.342711 
138 1 C 71.237700 13.739400 15.643685 
139 1 C 62.032400 18.580412 0.694355 
140 1 C 6.492559 10.283376 2.626755 
141 1 C 54.961100 15.308600 5.994070 
142 1 C 5.588059 14.465852 11.541300 
143 1 C 69.359800 15.456800 16.011800 
144 1 C 67.571400 0.339112 7.886040 
145 1 C 43.138600 4.412312 6.374150 
146 1 C 62.797400 14.943024 15.302655 
147 1 C 9.204059 19.248741 5.177970 
148 1 C 54.734000 17.370500 18.652800 
149 1 C 73.519200 -0.047083 15.430205 
150 1 C 54.698000 2.617210 3.794400 
151 1 C 45.494400 3.345730 17.166185 
152 1 C 70.289300 7.344888 18.679189 
153 1 C 73.925100 15.844100 5.144955 
154 1 C 57.506200 14.774124 3.022455 
155 1 C 46.419400 11.448188 1.842955 
156 1 C 66.540200 13.599800 1.401945 
157 1 C 56.755200 10.262500 6.746555 
158 1 C 4.012259 16.716732 7.834620 
159 1 C 15.427859 14.283700 10.675200 
160 1 C 51.000400 15.794924 1.885290 
161 1 C 14.991859 19.382000 17.281575 
162 1 C 60.355000 2.327130 16.079900 
163 1 C 61.269800 9.301312 7.930255 
164 1 C 68.390500 19.533624 4.139455 
165 1 C 69.250700 0.985507 18.278219 
166 1 C 4.475359 13.940788 9.158280 
167 1 C 50.780300 2.724530 17.838589 
168 1 C 69.076300 11.082600 13.912155 
169 1 C 64.363100 16.762800 18.048000 
170 1 C 48.106500 1.696010 17.141300 
171 1 C 72.980600 8.273212 12.781000 
172 1 C 54.568900 6.566824 2.124455 
173 1 C 56.375300 8.287380 1.203210 
174 1 C 46.862500 0.559598 13.266945 
175 1 C 63.210500 14.212100 3.187155 
176 1 C 71.931600 13.164300 19.181652 
177 1 C 43.393300 9.206860 7.453530 
178 1 C 50.704800 1.193488 8.726855 
179 1 C 8.536859 4.010930 7.929450 
180 1 C 61.188000 11.224224 9.136655 
181 1 C 57.086600 3.407312 2.925290 
182 1 C 48.431200 11.052032 12.566105 
183 1 C 45.657800 6.890970 9.610350 
184 1 C 66.877800 14.296400 16.183095 
185 1 C 56.504100 11.508322 3.503255 
186 1 C 72.550800 16.283702 18.494900 
187 1 C 54.054300 11.443862 16.429100 
188 1 C 6.080959 7.689310 11.986315 
189 1 C 50.494300 7.685350 10.122455 
190 1 C 3.899859 18.864497 6.378445 
191 1 C 72.726200 18.229300 15.384900 
192 1 C 54.615600 8.908812 10.074300 
193 1 C 47.517500 3.316400 9.584240 
194 1 C 64.438500 7.565612 4.461355 
195 1 C 6.600759 14.622700 3.385220 
196 1 C 61.035800 13.385500 12.300915 
197 1 C 67.085400 4.337712 7.600030 
198 1 C 8.768859 12.572800 18.496355 
199 1 C 52.702500 13.409600 4.193740 
200 1 C 45.897600 4.580140 2.702155 
201 1 C 51.814900 16.447052 13.542134 
202 1 C 64.762600 2.734512 3.968445 
203 1 C 5.719359 2.212840 15.452800 
204 1 C 51.824400 4.016276 11.452400 
205 1 C 50.117600 6.135580 12.895845 
206 1 C 46.564900 7.232912 13.495105 
207 1 C 53.915400 1.688220 15.354500 
208 1 C 60.751200 7.730824 3.983700 
209 1 C 66.410700 5.937076 14.362875 
210 1 C 75.231100 8.670288 7.225860 
211 1 C 13.426759 4.105080 7.996420 
212 1 C 7.576859 2.614188 15.789815 
213 1 C 54.085100 3.958250 14.217700 
214 1 C 12.201559 3.726088 13.856600 
215 1 C 49.040500 6.858388 8.970080 
216 1 C 59.344100 2.765112 11.511700 
217 1 C 4.835359 18.765392 5.359645 
218 1 C 43.300900 15.530000 3.604750 
219 1 C 11.173659 2.822476 5.526190 
220 1 C 69.772500 11.573224 12.819485 
221 1 C 9.805559 5.317588 3.235945 
222 1 C 67.058700 3.627888 12.718535 
223 1 C 9.440059 17.899588 4.792445 
224 1 C 74.715900 16.702500 1.451545 
225 1 C 59.809000 13.675024 6.854734 
226 1 C 59.532600 -0.106888 1.119655 
227 1 C 57.380700 19.298362 6.567955 
228 1 C 9.673659 14.223100 3.261070 
229 1 C 60.867200 17.409924 17.871789 
230 1 C 74.266100 8.659580 6.418945 
231 1 C 69.110300 14.883800 6.006300 
232 1 C 56.704800 19.081600 16.818100 
233 1 C 51.716500 4.964412 14.174795 
234 1 C 59.378300 10.257592 12.227245 
235 1 C 60.834700 13.245600 0.809358 
236 1 C 56.990400 14.183982 18.317600 
237 1 C 68.682400 8.787560 7.480445 
238 1 C 71.587800 11.241588 2.184450 
239 1 C 46.557100 10.367462 11.435055 
240 1 C 75.158100 5.651150 9.065800 
241 1 C 72.944100 11.693088 16.239245 
242 1 C 7.301359 2.867488 5.599560 
243 1 C 60.739600 11.037082 5.804990 
244 1 C 47.450300 0.007988 14.340800 
245 1 C 57.999400 7.223220 12.346500 
246 1 C 50.007500 4.099712 3.834110 
247 1 C 75.795500 15.722600 13.648000 
248 1 C 50.664000 6.083450 1.184480 
249 1 C 54.331400 12.018100 6.286855 
250 1 C 10.428159 17.271202 2.619440 
251 1 C 44.773600 19.109224 1.935355 
252 1 C 58.378800 17.398100 15.536145 
253 1 C 57.116200 0.553824 12.170555 
254 1 C 69.559700 5.133488 11.653655 
255 1 C 43.208400 16.406400 17.266389 
256 1 C 58.939500 5.986812 14.799815 
257 1 C 43.954200 17.516522 15.393400 
258 1 C 9.043359 14.105722 1.882650 
259 1 C 8.062659 19.408980 7.554140 
260 1 C 58.494400 8.684412 3.066955 
261 1 C 63.184100 18.781588 12.830800 
262 1 C 58.426900 11.800872 7.412350 
263 1 C 73.064300 12.791500 4.776755 
264 1 C 5.436259 7.239100 15.895000 
265 1 C 14.683659 7.430600 14.734305 
266 1 C 12.296859 8.591412 14.304000 
267 1 C 44.238900 8.052530 8.188060 
268 1 C 60.377100 17.420002 2.431955 
269 1 C 45.756900 3.104970 15.889835 
270 1 C 52.150600 4.357710 17.574500 
271 1 C 11.793559 6.320380 18.273455 
272 1 C 44.682100 5.398940 12.461900 
273 1 C 63.348800 19.013300 19.414200 
274 1 C 65.522900 16.567124 8.907211 
275 1 C 72.230900 11.814742 18.919232 
276 1 C 61.124400 7.369390 18.256775 
277 1 C 53.603100 6.526312 1.047011 
278 1 C 9.833759 15.011000 5.754745 
279 1 C 60.763700 6.117960 4.163455 
280 1 C 11.254659 18.438712 2.197890 
281 1 C 71.577100 1.055888 12.260900 
282 1 C 65.411100 10.834388 4.958855 
283 1 C 39.413900 5.020740 16.383400 
284 1 C 67.423500 14.128300 0.564645 
285 1 C 64.092000 11.438072 15.312295 
286 1 C 75.831400 7.733012 8.221645 
287 1 C 64.404400 17.702800 1.035860 
288 1 C 61.094300 0.989912 4.232340 
289 1 C 54.101200 0.121688 11.771455 
290 1 C 53.424200 6.585220 14.034000 
291 1 C 65.258600 7.758812 7.166510 
292 1 C 73.881800 7.090370 15.745400 
293 1 C 58.926500 5.219600 4.968245 
294 1 C 70.900700 17.782400 12.245355 
295 1 C 75.096100 10.491972 15.353585 
296 1 C 5.259559 11.611600 17.235500 
297 1 C 61.564500 12.404022 12.698165 
298 1 C 65.542200 14.310722 10.784305 
299 1 C 70.974500 4.936588 2.121920 
300 1 C 69.646900 2.398690 9.378470 
301 1 C 67.807500 6.032412 19.025900 
302 1 C 63.139700 10.902800 11.205611 
303 1 C 58.875200 19.442988 13.784200 
304 1 C 65.290400 16.283600 15.763600 
305 1 C 52.667800 7.688830 16.341035 
306 1 C 48.838000 0.467576 15.058400 
307 1 C 59.088000 2.179380 3.893440 
308 1 C 55.360500 17.100600 13.257545 
309 1 C 49.628000 5.783788 6.877610 
310 1 C 6.352959 12.568592 10.931400 
311 1 C 52.522600 5.175712 8.989280 
312 1 C 69.501200 9.392188 18.768400 
313 1 C 69.509900 18.763112 4.843650 
314 1 C 44.397700 5.642012 9.985510 
315 1 C 47.489800 16.166862 6.767155 
316 1 C 49.374000 14.697702 13.912800 
317 1 C 61.139400 1.796290 17.177500 
318 1 C 5.452959 3.351112 14.796189 
319 1 C 6.833059 15.804200 17.934000 
320 1 C 9.156759 1.029212 18.998835 
321 1 C 59.664300 6.359520 9.865310 
322 1 C 66.162000 7.541788 16.456255 
323 1 C 43.821700 9.320488 4.519070 
324 1 C 72.656400 0.743838 10.885700 
325 1 C 59.038100 1.951960 5.295855 
326 1 C 66.284300 11.159888 9.638490 
327 1 C 49.869300 10.856300 19.119300 
328 1 C 59.250700 2.905324 16.635015 
329 1 C 51.499400 18.077800 7.859590 
330 1 C 57.602500 5.030076 5.108230 
331 1 C 57.718000 17.235202 16.677900 
332 1 C 53.894200 2.774260 6.176245 
333 1 C 54.879900 18.468562 1.695190 
334 1 C 60.086500 7.146430 11.016300 
335 1 C 62.430300 18.786720 9.425425 
336 1 C 3.748759 18.243900 17.568485 
337 1 C 56.310500 5.840412 18.576000 
338 1 C 73.807700 17.688824 12.967355 
339 1 C 52.220600 11.772300 15.863075 
340 1 C 73.826500 3.747620 10.766015 
341 1 C 53.974200 1.747688 7.518455 
342 1 C 75.323100 -0.161788 5.723630 
343 1 C 5.837659 13.471500 2.755330 
344 1 C 75.359700 5.596188 13.912995 
345 1 C 58.970700 5.972788 1.473630 
346 1 C 72.030200 18.889217 7.612450 
347 1 C 9.771459 18.162288 15.332700 
348 1 C 65.263900 11.465462 3.771440 
349 1 C 55.889300 1.306188 1.756290 
350 1 C 69.675500 5.987612 9.145140 
351 1 C 72.111100 0.097788 18.897889 
352 1 C 5.581059 6.225876 19.446882 
353 1 C 12.768959 16.259400 15.167585 
354 1 C 49.318700 15.130522 9.375455 
355 1 C 68.957600 8.481030 3.404490 
356 1 C 56.521800 5.255950 9.650060 
357 1 C 46.831800 5.427320 17.055055 
358 1 C 13.033159 9.115512 2.461155 
359 1 C 68.162300 11.717962 6.162155 
360 1 C 62.577200 0.845288 15.612875 
361 1 C 47.247500 1.161740 11.606665 
362 1 C 53.528300 12.517224 8.670220 
363 1 C 6.493859 17.158300 1.480545 
364 1 C 56.284800 18.534588 4.399155 
365 1 C 51.024400 16.523824 17.269300 
366 1 C 55.679400 6.849112 12.775055 
367 1 C 56.969300 4.432788 3.823360 
368 1 C 51.149900 10.696824 11.826805 
369 1 C 69.000700 12.224500 11.675400 
370 1 C 51.358000 9.291590 6.846980 
371 1 C 69.575900 12.001162 9.370580 
372 1 C 52.691000 7.318112 19.027621 
373 1 C 7.293559 2.065220 9.549140 
374 1 C 45.331200 8.611412 8.800170 
375 1 C 47.202200 17.916524 11.004785 
376 1 C 68.142300 6.052388 8.823455 
377 1 C 67.972600 19.526667 12.583700 
378 1 C 56.733600 4.661730 6.702680 
379 1 C 56.497100 8.935912 15.096000 
380 1 C 64.132100 17.487800 14.875755 
381 1 C 75.755000 10.182400 2.179255 
382 1 C 53.229000 6.301430 9.569730 
383 1 C 64.983300 2.337930 2.678055 
384 1 C 67.363400 7.781140 17.217700 
385 1 C 49.256700 15.166500 6.575455 
386 1 C 64.237400 12.404000 17.034200 
387 1 C 73.582800 11.235324 9.347220 
388 1 C 47.181400 18.549800 16.965995 
389 1 C 65.314500 7.273288 5.880600 
390 1 C 4.502459 7.359512 1.028655 
391 1 C 66.019300 9.170250 12.906615 
392 1 C 10.835359 17.297792 13.500395 
393 1 C 55.116500 2.743340 5.172955 
394 1 C 67.424100 5.153888 15.775700 
395 1 C 53.855500 18.680422 15.238089 
396 1 C 75.227700 11.194200 4.034045 
397 1 C 67.725400 2.652388 6.223680 
398 1 C 51.006500 10.961000 18.069505 
399 1 C 61.501500 3.326512 10.052200 
400 1 C 61.212000 10.324676 13.481900 
401 1 C 69.559100 5.429112 16.064005 
402 1 C 74.607500 6.846788 4.563645 
403 1 C 13.137659 11.754388 14.012755 
404 1 C 70.051200 7.862588 4.193150 
405 1 C 63.944200 15.038642 3.894890 
406 1 C 70.285200 1.893988 6.604555 
407 1 C 9.992259 12.021900 18.964378 
408 1 C 55.548900 7.502320 5.151755 
409 1 C 74.695100 2.650788 7.852150 
410 1 C 62.173700 1.699588 12.681100 
411 1 C 8.858659 12.296400 13.171089 
412 1 C 49.492500 3.699888 2.732755 
413 1 C 67.949300 9.456570 15.386100 
414 1 C 10.023059 9.753688 11.780055 
415 1 C 57.310600 4.040090 0.774155 
416 1 C 52.332600 7.735912 4.581611 
417 1 C 45.889200 7.374588 1.172060 
418 1 C 68.429900 8.846290 16.534389 
419 1 C 45.054300 1.855000 15.278835 
420 1 C 49.885700 5.147070 15.375785 
421 1 C 12.557259 16.464700 8.354320 
422 1 C 53.313200 5.452088 13.426355 
423 1 C 42.966700 6.116120 16.243205 
424 1 C 61.809400 3.506288 5.527055 
425 1 C 68.040700 11.825788 14.441200 
426 1 C 8.111359 13.919800 9.374020 
427 1 C 65.215600 12.819492 7.430590 
428 1 C 54.170700 16.035452 19.262067 
429 1 C 45.561000 1.468690 2.526760 
430 1 C 51.439800 9.923962 14.249500 
431 1 C 62.484400 4.934088 16.350400 
432 1 C 11.590659 4.353700 3.907455 
433 1 C 74.248500 18.195512 8.703460 
434 1 C 73.319100 4.262512 1.055890 
435 1 C 62.415400 3.009112 7.896355 
436 1 C 63.930100 4.687988 15.977500 
437 1 C 64.600400 9.746120 5.689911 
438 1 C 49.912500 1.386670 6.264240 
439 1 C 58.554000 7.319012 14.456800 
440 1 C 67.543200 9.695290 1.785855 
441 1 C 62.173800 6.905460 2.037455 
442 1 C 59.253600 10.929532 14.648545 
443 1 C 8.815359 3.973312 11.772000 
444 1 C 40.847300 17.127400 16.287425 
445 1 C 69.426800 0.426888 9.755580 
446 1 C 52.577200 7.375550 14.940295 
447 1 C 13.620859 6.691700 8.721120 
448 1 C 45.732100 12.459300 15.469055 
449 1 C 68.300800 7.474250 3.913310 
450 1 C 48.705000 2.133988 0.944804 
451 1 C 45.165300 10.723600 10.718200 
452 1 C 52.813000 7.118340 8.409370 
453 1 C 5.333559 6.740688 6.064045 
454 1 C 61.281700 6.100412 2.617260 
455 1 C 57.234800 12.345388 12.480905 
456 1 C 55.961300 8.142512 7.590590 
457 1 C 45.993700 9.846110 7.683070 
458 1 C 59.242100 17.889200 8.682155 
459 1 C 12.244959 13.894372 8.497489 
460 1 C 60.068400 2.795550 9.883555 
461 1 C 7.189259 9.308112 2.225755 
462 1 C 12.120959 3.789488 18.985889 
463 1 C 60.106300 16.587600 10.644095 
464 1 C 47.868700 10.204102 15.337655 
465 1 C 74.895200 12.493282 0.835845 
466 1 C 3.784359 15.764800 19.186100 
467 1 C 60.796800 13.837988 15.973200 
468 1 C 63.808300 18.544422 3.994755 
469 1 C 64.342000 12.217762 11.559100 
470 1 C 74.588500 14.162600 8.050355 
471 1 C 48.424300 14.674232 11.479235 
472 1 C 68.372900 16.448000 7.670820 
473 1 C 51.220800 10.195300 10.446700 
474 1 C 59.179700 9.424310 9.059455 
475 1 C 62.010800 2.594140 1.931111 
476 1 C 71.777600 15.609600 3.490240 
477 1 C 43.321000 17.973832 19.012175 
478 1 C 70.192000 12.176800 7.967640 
479 1 C 64.569600 15.092700 6.613950 
480 1 C 54.309800 2.863790 15.118400 
481 1 C 59.040600 7.955680 13.126555 
482 1 C 59.288900 9.474312 17.185900 
483 1 C 8.137059 14.704300 12.501000 
484 1 C 73.346600 13.856600 13.289955 
485 1 C 49.181000 11.813600 8.175455 
486 1 C 44.343000 10.239688 6.846600 
487 1 C 13.096159 18.342888 17.874645 
488 1 C 47.532700 12.327542 1.147960 
489 1 C 55.863800 14.330900 15.417000 
490 1 C 62.563000 9.348812 4.403390 
491 1 C 52.071300 18.573962 1.737980 
492 1 C 61.695700 4.263812 11.154400 
493 1 C 58.353100 1.801630 8.707411 
494 1 C 52.578100 13.250472 12.755725 
495 1 C 57.115000 16.202322 1.011755 
496 1 C 54.167400 18.750924 5.730945 
497 1 C 45.847200 6.101888 0.720955 
498 1 C 71.276800 12.296100 4.629489 
499 1 C 71.232700 2.669030 18.920555 
500 1 C 62.604600 10.992300 9.703255 
501 1 C 61.954000 14.208122 0.689511 
502 1 C 72.093500 4.532010 18.775471 
503 1 C 56.068700 17.362652 18.295475 
504 1 C 46.673700 5.151788 1.595455 
505 1 C 10.928759 14.731512 3.180511 
506 1 C 6.429459 11.954424 0.769755 
507 1 C 11.020059 4.277310 16.117455 
508 1 C 9.606159 14.011000 9.066420 
509 1 C 72.795100 0.954988 16.642600 
510 1 C 62.660400 17.552462 8.954575 
511 1 C 6.139859 17.670700 12.147055 
512 1 C 66.144300 3.565412 0.874375 
513 1 C 44.444000 2.494012 18.168498 
514 1 C 46.550600 3.768888 14.062365 
515 1 C 72.895000 3.829288 13.694000 
516 1 C 7.291959 2.983970 1.719755 
517 1 C 60.424500 9.812472 8.875040 
518 1 C 65.747700 15.857300 6.416145 
519 1 C 67.813700 8.051280 6.862230 
520 1 C 6.818559 13.391202 5.722780 
521 1 C 43.465000 4.849000 15.660100 
522 1 C 62.030300 8.786012 7.025245 
523 1 C 13.503559 19.603000 17.671715 
524 1 C 58.415700 3.885790 16.390500 
525 1 C 45.101100 14.236000 9.204830 
526 1 C 65.604100 2.003288 9.127155 
527 1 C 48.664300 5.796010 4.424730 
528 1 C 68.191700 7.136480 18.029827 
529 1 C 53.468300 8.655812 17.014255 
530 1 C 10.873459 13.041400 15.539900 
531 1 C 10.255359 2.070288 12.077600 
532 1 C 69.891000 4.026812 14.047900 
533 1 C 51.750800 17.850572 11.193900 
534 1 C 41.139000 14.240442 3.323140 
535 1 C 62.711800 3.344450 9.215675 
536 1 C 46.616200 12.591100 17.281825 
537 1 C 58.201600 2.817312 7.078245 
538 1 C 10.420459 5.459500 13.338500 
539 1 C 12.715859 16.167400 2.436255 
540 1 C 63.427200 11.634124 16.295500 
541 1 C 63.551700 9.285220 11.179000 
542 1 C 9.480059 9.314380 10.546785 
543 1 C 68.717800 -0.011312 7.024480 
544 1 C 64.583400 8.209412 9.186920 
545 1 C 66.453900 17.374582 12.968075 
546 1 C 8.354059 1.706688 18.226755 
547 1 C 56.586000 13.734392 1.806440 
548 1 C 60.027500 8.155924 12.067900 
549 1 C 54.789500 5.368888 17.975000 
550 1 C 70.808500 9.177120 17.010465 
551 1 C 71.001300 11.188788 5.760955 
552 1 C 5.668159 9.010390 9.906305 
553 1 C 58.456500 8.851712 7.914745 
554 1 C 61.775800 16.564524 17.091000 
555 1 C 58.000800 4.420412 12.772765 
556 1 C 5.140959 12.551488 0.603643 
557 1 C 48.483700 17.205200 11.761195 
558 1 C 53.647200 2.513688 8.927945 
559 1 C 65.750200 12.576600 8.823990 
560 1 C 50.523500 11.498800 6.253155 
561 1 C 51.431000 16.516902 9.489185 
562 1 C 63.984400 9.107840 14.074200 
563 1 C 59.893100 18.650362 9.951655 
564 1 C 5.329759 5.274930 3.794555 
565 1 C 71.190700 11.383300 12.925585 
566 1 C 61.775400 -0.119067 15.054100 
567 1 C 65.598800 6.757140 15.361300 
568 1 C 61.455300 11.954792 6.689050 
569 1 C 46.267600 2.625488 6.372655 
570 1 C 54.067100 16.253962 12.733500 
571 1 C 4.262059 18.021924 2.964689 
572 1 C 9.429159 7.926212 15.185500 
573 1 C 7.631359 16.944312 7.758645 
574 1 C 75.342300 9.372288 1.112245 
575 1 C 3.710959 3.413770 10.657725 
576 1 C 49.451500 5.495050 3.330270 
577 1 C 11.097559 2.867160 15.844155 
578 1 C 66.914000 -0.085112 14.534355 
579 1 C 67.648600 0.821388 3.889800 
580 1 C 64.695000 11.741100 19.480469 
581 1 C 55.086300 19.327200 10.824600 
582 1 C 67.098300 14.781782 8.399055 
583 1 C 73.258200 11.792000 17.658500 
584 1 C 9.101559 17.066642 1.135400 
585 1 C 51.214700 2.747690 11.736255 
586 1 C 68.658700 7.558588 12.650200 
587 1 C 58.549100 19.002989 15.080265 
588 1 C 46.111000 2.416088 12.359795 
589 1 C 54.137400 13.703524 2.093411 
590 1 C 6.846559 9.127212 14.381755 
591 1 C 54.717300 7.857310 2.854210 
592 1 C 7.907459 2.532788 14.381589 
593 1 C 55.088900 12.296152 14.412535 
594 1 C 10.055159 17.476500 8.245410 
595 1 C 55.388300 11.130488 11.483200 
596 1 C 42.284600 14.145200 9.696555 
597 1 C 68.877200 0.333212 19.393500 
598 1 C 57.963300 10.126532 11.571185 
599 1 C 7.458859 7.376288 1.250745 
600 1 C 50.577000 8.474112 7.793190 
601 1 C 64.281100 9.548112 8.394570 
602 1 C 48.326200 9.245088 16.612289 
603 1 C 11.523159 17.356524 8.539830 
604 1 C 66.420500 19.325655 8.770260 
605 1 C 70.334500 15.897100 10.065889 
606 1 C 46.492700 15.014100 1.129545 
607 1 C 47.784400 3.589388 4.857700 
608 1 C 41.992300 11.499788 6.898245 
609 1 C 66.023700 18.455900 13.642100 
610 1 C 41.598800 8.525188 15.986515 
611 1 C 50.331300 9.039412 10.393825 
612 1 C 41.879300 15.389732 3.465000 
613 1 C 65.574600 18.305722 4.700570 
614 1 C 66.429800 13.656500 3.135955 
615 1 C 68.933800 15.862088 19.362024 
616 1 C 11.369259 19.583400 10.904645 
617 1 C 50.420600 3.874488 16.045200 
618 1 C 40.944900 7.353750 15.637635 
619 1 C 3.946959 0.557743 12.641000 
620 1 C 50.573700 13.498900 16.511000 
621 1 C 43.840300 0.894988 5.227060 
622 1 C 55.861100 11.635488 4.656580 
623 1 C 73.765800 19.475524 6.150060 
624 1 C 48.188800 16.608072 8.268845 
625 1 C 64.771700 18.336432 14.189105 
626 1 C 49.117800 13.476552 16.609800 
627 1 C 48.522300 15.746600 16.535200 
628 1 C 42.820700 5.772940 9.986755 
629 1 C 9.865059 0.474588 14.235811 
630 1 C 74.804900 4.682390 7.872010 
631 1 C 73.327900 4.182340 9.506340 
632 1 C 52.392100 14.102900 15.123355 
633 1 C 53.202700 7.459688 11.714600 
634 1 C 10.653559 5.591188 17.868795 
635 1 C 75.240900 7.934720 18.072100 
636 1 C 64.911100 6.999712 8.675830 
637 1 C 59.303700 8.035210 4.188645 
638 1 C 57.489100 3.842488 5.909955 
639 1 C 57.425800 17.049724 19.055600 
640 1 C 74.202700 1.815480 2.073780 
641 1 C 56.406300 -0.086012 11.151005 
642 1 C 11.020259 6.430490 10.869200 
643 1 C 47.009900 14.787100 12.732311 
644 1 C 44.620800 13.116500 0.986055 
645 1 C 75.304300 13.022800 1.974600 
646 1 C 67.518200 6.220612 3.383055 
647 1 C 65.231800 0.885888 3.108455 
648 1 C 7.336659 9.600300 11.862125 
649 1 C 4.068659 8.698960 13.645300 
650 1 C 68.676400 9.567612 0.826055 
651 1 C 56.352600 15.609772 6.345689 
652 1 C 9.430259 8.021112 9.886590 
653 1 C 43.899600 3.425688 6.375455 
654 1 C 42.691300 8.293212 10.083500 
655 1 C 71.866900 9.051000 2.028455 
656 1 C 67.449200 16.921500 3.073410 
657 1 C 4.318459 12.587252 5.697780 
658 1 C 71.806100 0.570388 4.538560 
659 1 C 7.568759 14.669800 2.116155 
660 1 C 44.888900 18.217342 0.764545 
661 1 C 72.588200 13.089462 15.913685 
662 1 C 52.294200 4.291488 15.363400 
663 1 C 67.617500 12.777924 13.360600 
664 1 C 70.185700 13.869776 16.409500 
665 1 C 59.836800 0.860392 13.136800 
666 1 C 61.560800 15.963702 7.298755 
667 1 C 43.451400 7.924790 3.910000 
668 1 C 68.378600 5.280470 1.114920 
669 1 C 69.907200 3.226288 8.486920 
670 1 C 62.711200 7.947710 1.318645 
671 1 C 50.507100 5.518588 13.958055 
672 1 C 74.338800 17.474892 7.324945 
673 1 C 4.781159 4.111412 7.439255 
674 1 C 64.724500 13.992524 7.508860 
675 1 C 56.979100 11.511888 7.336555 
676 1 C 13.167459 0.921988 11.550000 
677 1 C 61.893500 10.348900 3.829055 
678 1 C 60.551300 6.427160 8.489645 
679 1 C 12.458659 1.132188 2.110960 
680 1 C 61.606000 16.681762 5.958145 
681 1 C 63.047800 19.556824 11.733700 
682 1 C 57.764200 1.104270 18.879200 
683 1 C 48.612600 19.071124 9.294555 
684 1 C 44.368600 3.356212 9.459095 
685 1 C 47.547300 9.856988 7.613460 
686 1 C 52.275100 0.662211 5.743955 
687 1 C 70.306700 17.365000 6.497045 
688 1 C 65.947900 0.554802 11.023400 
689 1 C 48.234300 12.064200 7.482610 
690 1 C 10.283259 2.582888 7.393555 
691 1 C 52.664900 3.399110 8.828655 
692 1 C 10.024359 3.420450 11.516900 
693 1 C 67.569600 15.474288 19.115700 
694 1 C 73.956200 18.180200 1.081630 
695 1 C 70.833400 4.316388 8.417940 
696 1 C 4.107659 2.910950 2.201355 
697 1 C 53.082700 4.639490 16.464055 
698 1 C 53.970400 5.130912 19.004849 
699 1 C 41.221400 14.624700 16.145175 
700 1 C 5.085459 1.677788 1.217600 
701 1 C 66.241800 9.485088 11.514400 
702 1 C 52.804900 17.602800 2.504580 
703 1 C 5.563259 5.422288 10.881300 
704 1 C 54.673300 3.533088 9.463940 
705 1 C 59.754000 16.099972 2.815130 
706 1 C 49.554700 7.395020 18.697900 
707 1 C 69.926700 18.181324 10.719355 
708 1 C 52.928900 15.116202 5.620650 
709 1 C 48.946500 11.884288 1.117300 
710 1 C 63.751600 0.331452 3.737955 
711 1 C 55.423100 13.636072 14.158200 
712 1 C 64.563000 10.020200 18.331400 
713 1 C 61.921100 7.785712 13.508300 
714 1 C 54.886100 18.202722 4.600440 
715 1 C 53.484900 13.929282 17.539485 
716 1 C 48.620800 16.419400 15.180500 
717 1 C 57.136700 4.669550 11.963400 
718 1 C 54.294000 6.947188 12.878265 
719 1 C 43.314600 19.222305 5.781040 
720 1 C 47.027600 13.875788 9.151020 
721 1 C 49.162000 17.744488 13.786200 
722 1 C 9.096159 12.592100 5.884455 
723 1 C 72.221400 10.631700 15.561800 
724 1 C 73.891500 15.593000 1.377011 
725 1 C 75.551000 12.275624 18.552400 
726 1 C 46.116100 5.486888 8.648545 
727 1 C 43.406700 10.372800 3.503100 
728 1 C 67.919600 1.843650 14.762785 
729 1 C 69.974600 17.700272 19.479900 
730 1 C 55.669100 6.915112 3.891770 
731 1 C 63.483000 19.522100 6.929750 
732 1 C 64.451600 12.538700 9.253860 
733 1 C 62.193800 11.973900 3.169055 
734 1 C 70.433500 8.784976 5.608710 
735 1 C 11.270959 19.567600 5.219889 
736 1 C 70.658700 6.767720 3.966870 
737 1 C 74.120900 9.279288 2.341330 
738 1 C 58.045200 13.442500 9.448795 
739 1 C 59.734600 16.963624 4.666900 
740 1 C 44.667400 0.891288 9.074855 
741 1 C 63.488700 6.402212 4.138240 
742 1 C 53.764100 1.166488 16.585455 
743 1 C 9.402959 16.866400 13.719089 
744 1 C 58.841500 5.859140 18.011300 
745 1 C 64.203400 15.753600 12.350225 
746 1 C 62.746700 17.414888 14.850895 
747 1 C 74.000300 11.557352 7.823045 
748 1 C 53.580300 2.716210 2.911500 
749 1 C 41.286500 9.319460 4.072660 
750 1 C 48.946000 0.274988 16.425400 
751 1 C 43.922200 14.095312 12.744200 
752 1 C 63.663100 10.966688 1.178280 
753 1 C 55.487100 1.710250 3.024755 
754 1 C 75.420300 5.364290 19.279325 
755 1 C 7.999259 9.556550 16.714189 
756 1 C 70.129500 10.090762 5.582720 
757 1 C 54.023000 4.198588 6.483455 
758 1 C 71.494600 0.366006 1.217145 
759 1 C 50.365900 17.022752 4.239590 
760 1 C 12.357759 12.354800 5.967330 
761 1 C 49.722500 5.987160 2.285811 
762 1 C 7.524059 4.257690 17.933300 
763 1 C 64.356600 6.065588 15.956300 
764 1 C 68.059000 17.703588 15.399011 
765 1 C 58.819100 12.923400 6.141460 
766 1 C 45.354500 19.519265 19.097000 
767 1 C 11.282559 16.870842 11.484725 
768 1 C 65.076700 5.944912 19.359558 
769 1 C 46.634800 1.857090 3.712340 
770 1 C 66.057700 14.640500 11.905600 
771 1 C 50.817300 5.006590 8.165555 
772 1 C 41.799300 12.750924 12.698100 
773 1 C 63.493200 18.933716 10.303300 
774 1 C 13.634259 5.554280 1.299500 
775 1 C 42.491900 14.122100 12.703135 
776 1 C 48.627400 5.329576 16.006715 
777 1 C 57.360100 14.597442 0.688198 
778 1 C 45.060100 5.296690 18.764659 
779 1 C 60.121400 11.440400 2.349250 
780 1 C 3.903459 6.764940 11.798615 
781 1 C 72.744900 1.355588 13.109535 
782 1 C 8.414159 16.304700 12.623100 
783 1 C 67.059200 18.904600 1.759620 
784 1 C 8.614059 17.070652 11.194525 
785 1 C 56.011000 12.224000 7.987545 
786 1 C 55.789500 14.960572 17.589635 
787 1 C 64.315300 9.531490 16.622900 
788 1 C 11.214559 16.400212 18.032914 
789 1 C 58.900500 14.559192 10.164165 
790 1 C 53.984400 9.254960 1.105155 
791 1 C 58.250300 6.735988 9.716515 