ITEM: TIMESTEP
0
ITEM: NUMBER OF ATOMS
4
ITEM: BOX BOUNDS pp pp pp
-1.0 1.0
-1.0 1.0
-1.0 1.0
ITEM: ATOMS id type element xu yu zu
1 1 C  0.0            0.0  0.0
2 1 C  0.0           -1.0  0.3575
2 1 C  0.8660254038   0.5  0.3575
3 1 C -0.8660254038   0.5  0.3575
