ITEM: TIMESTEP
0
ITEM: NUMBER OF ATOMS
4
ITEM: BOX BOUNDS pp pp pp
-1.0 1.0
-1.0 1.0
-1.0 1.0
ITEM: ATOMS id type element xu yu zu
1 1 C  1.0            1.0  1.0
2 1 C  1.0            0.0  1.3575
2 1 C  1.8660254038   1.5  1.3575
3 1 C  0.133974596    1.5  1.3575
