ITEM: TIMESTEP
0
ITEM: NUMBER OF ATOMS
5
ITEM: BOX BOUNDS pp pp pp
-10.0 10.0
-10.0 10.0
-10.0 10.0
ITEM: ATOMS id type element xu yu zu
1 1 C 0.0  0.0  0.0
2 1 C 1.0  0.0 -0.001
3 1 C 0.0  1.0 -0.001
4 1 C 0.0  0.0  1.0
5 1 C 0.0 -1.0 -0.001
