ITEM: TIMESTEP
0
ITEM: NUMBER OF ATOMS
64
ITEM: BOX BOUNDS pp pp pp
0.0 7.131077784
0.0 7.131077784
0.0 7.131077784
ITEM: ATOMS id type element x y z                            
1  1 C 7.12021 7.11499 0.02455 
2  1 C 5.31338 5.33877 7.11395 
3  1 C 7.10386 5.33599 5.37086 
4  1 C 5.33164 0.04665 5.38423 
5  1 C 0.88396 0.87625 0.86701 
6  1 C 6.24066 6.21774 0.89007 
7  1 C 0.86265 6.20033 6.28918 
8  1 C 6.31198 0.95544 6.23787 
9  1 C 0.03674 7.09916 3.54469 
10 1 C 5.32734 5.39722 3.56232 
11 1 C 0.00692 5.39659 1.79172 
12 1 C 5.33955 7.07993 1.75897 
13 1 C 0.89298 0.90626 4.48878 
14 1 C 6.31304 6.23385 4.49399 
15 1 C 0.91796 6.29438 2.62688 
16 1 C 6.23305 0.90834 2.64875 
17 1 C 0.02646 3.57516 7.11662 
18 1 C 5.38716 1.8228 7.08726  
19 1 C 7.12442 1.81396 5.35635 
20 1 C 5.27447 3.55183 5.2949  
21 1 C 0.90016 4.41459 0.86025 
22 1 C 6.23496 2.69284 0.89684 
23 1 C 0.87095 2.66486 6.20174 
24 1 C 6.23228 4.44263 6.18131 
25 1 C 0.0088 3.51387 3.61135  
26 1 C 5.34261 1.76968 3.55626 
27 1 C 7.12689 1.77118 1.7759  
28 1 C 5.33575 3.56876 1.76518 
29 1 C 0.94157 4.42531 4.45949 
30 1 C 6.20607 2.65287 4.45949 
31 1 C 0.87187 2.6482 2.6545   
32 1 C 6.24822 4.47846 2.70731 
33 1 C 3.60369 7.12287 0.03766 
34 1 C 1.77731 5.36942 0.02389 
35 1 C 3.56111 5.30259 5.34493 
36 1 C 1.75721 7.11934 5.34163 
37 1 C 4.42297 0.88059 0.8896  
38 1 C 2.68873 6.2775 0.89264  
39 1 C 4.47758 6.18101 6.22099 
40 1 C 2.68381 0.91738 6.25401 
41 1 C 3.56169 0.02604 3.57014 
42 1 C 1.76327 5.40188 3.55702 
43 1 C 3.55684 5.35639 1.76303 
44 1 C 1.78069 0.01882 1.78542 
45 1 C 4.43997 0.91583 4.48968 
46 1 C 2.66363 6.22337 4.43795 
47 1 C 4.47147 6.28809 2.69896 
48 1 C 2.67931 0.88121 2.69181 
49 1 C 3.59393 3.55731 0.00406 
50 1 C 1.76244 1.79985 7.12895 
51 1 C 3.58538 1.78031 5.32564 
52 1 C 1.79441 3.55686 5.3022  
53 1 C 4.46257 4.42825 0.93827 
54 1 C 2.62324 2.65542 0.89834 
55 1 C 4.48101 2.72662 6.22378 
56 1 C 2.71118 4.42651 6.24387 
57 1 C 3.55244 3.57782 3.60087 
58 1 C 1.77956 1.78895 3.57501 
59 1 C 3.55971 1.75259 1.79989 
60 1 C 1.81117 3.53315 1.79263 
61 1 C 4.46309 4.44119 4.47687 
62 1 C 2.63958 2.66519 4.4581  
63 1 C 4.43594 2.69055 2.7022  
64 1 C 2.68093 4.45376 2.64589 
